% Model:              SIMBench260525.mph
% Version:            COMSOL 6.2.0.339
% Date:               May 27 2026, 17:55
% Dimension:          2
% Nodes:              4096
% Expressions:        1
% Description:        温度
% Length unit:        m
% x                       y                        T (K)
5.0E-4                    -0.0315                  370.17357281034083
5.0E-4                    -0.0305                  369.6294655714817
5.0E-4                    -0.0295                  369.07595097922405
5.0E-4                    -0.0285                  368.15654417091366
5.0E-4                    -0.0275                  367.0276890346686
5.0E-4                    -0.0265                  365.73264924088784
5.0E-4                    -0.0255                  363.32663709897815
5.0E-4                    -0.0245                  360.6368270543799
5.0E-4                    -0.0235                  357.3451611080817
5.0E-4                    -0.0225                  352.80160146948583
5.0E-4                    -0.0215                  348.22058142523974
5.0E-4                    -0.0205                  343.2052675009225
5.0E-4                    -0.0195                  338.2632551946521
5.0E-4                    -0.0185                  333.37174043573094
5.0E-4                    -0.0175                  329.2015299878043
5.0E-4                    -0.0165                  325.6944145553806
5.0E-4                    -0.0155                  322.18729912295686
5.0E-4                    -0.0145                  320.0538973477641
5.0E-4                    -0.0135                  318.1061001561087
5.0E-4                    -0.0125                  316.2080334180213
5.0E-4                    -0.0115                  315.30579063027903
5.0E-4                    -0.0105                  314.2538493629567
5.0E-4                    -0.0095                  313.35558371389163
5.0E-4                    -0.0085                  312.8385236242433
5.0E-4                    -0.0075                  312.2127546411431
5.0E-4                    -0.0065                  311.7592558302019
5.0E-4                    -0.0055                  311.35592361827656
5.0E-4                    -0.0045                  310.89451520358955
5.0E-4                    -0.0035                  310.64689549607374
5.0E-4                    -0.0025                  310.25455904940213
5.0E-4                    -0.0015                  309.85108795170953
5.0E-4                    -5.0E-4                  309.71417569541535
5.0E-4                    5.0E-4                   309.52415421687346
5.0E-4                    0.0015                   309.3341327383315
5.0E-4                    0.0025                   309.2656193876149
5.0E-4                    0.0035                   309.115997915488
5.0E-4                    0.0045                   308.9629579581178
5.0E-4                    0.0055                   308.6947891351315
5.0E-4                    0.0065                   308.3422601823364
5.0E-4                    0.0075                   307.9457501662669
5.0E-4                    0.0085                   306.9361902847222
5.0E-4                    0.0095                   305.6824054466121
5.0E-4                    0.0105                   304.4049040039864
5.0E-4                    0.0115                   301.9247711497218
5.0E-4                    0.0125                   299.23256270266256
5.0E-4                    0.0135                   297.12205018267196
5.0E-4                    0.0145                   296.71253556490376
5.0E-4                    0.0155                   296.3030209471356
5.0E-4                    0.0165                   294.8315798855838
5.0E-4                    0.0175                   294.0493752891897
5.0E-4                    0.0185                   293.32283041343254
5.0E-4                    0.0195                   293.1472033381506
5.0E-4                    0.0205                   293.14049144323974
5.0E-4                    0.0215                   293.14364802964434
5.0E-4                    0.0225                   293.14761605627297
5.0E-4                    0.0235                   293.1504010902271
5.0E-4                    0.0245                   293.1520823178041
5.0E-4                    0.0255                   293.15200916251194
5.0E-4                    0.0265                   293.1520149559125
5.0E-4                    0.0275                   293.15225265636485
5.0E-4                    0.0285                   293.1523026907007
5.0E-4                    0.0295                   293.1538583995724
5.0E-4                    0.0305                   293.1571088424055
5.0E-4                    0.0315                   293.1603885200017
0.0015                    -0.0315                  368.1661156058311
0.0015                    -0.0305                  368.1780885361745
0.0015                    -0.0295                  367.53388628958265
0.0015                    -0.0285                  366.67691175750366
0.0015                    -0.0275                  365.651151539905
0.0015                    -0.0265                  363.75398905156715
0.0015                    -0.0255                  361.7079724250702
0.0015                    -0.0245                  359.0364116651125
0.0015                    -0.0235                  354.64405430841146
0.0015                    -0.0225                  350.18364273515715
0.0015                    -0.0215                  345.49702743069685
0.0015                    -0.0205                  340.06792953395154
0.0015                    -0.0195                  334.803564370349
0.0015                    -0.0185                  330.2172403018368
0.0015                    -0.0175                  326.32451282170314
0.0015                    -0.0165                  322.61867404456854
0.0015                    -0.0155                  319.88400366426816
0.0015                    -0.0145                  317.971054986392
0.0015                    -0.0135                  316.03501951419406
0.0015                    -0.0125                  314.85133512062225
0.0015                    -0.0115                  314.06505619957244
0.0015                    -0.0105                  313.0559032531619
0.0015                    -0.0095                  312.58972596052496
0.0015                    -0.0085                  312.2405534115529
0.0015                    -0.0075                  311.61478442845265
0.0015                    -0.0065                  311.42828273104635
0.0015                    -0.0055                  311.18964134923715
0.0015                    -0.0045                  310.79294641787664
0.0015                    -0.0035                  310.7085801127735
0.0015                    -0.0025                  310.5074507995148
0.0015                    -0.0015                  310.2395703467346
0.0015                    -5.0E-4                  310.2294219860013
0.0015                    5.0E-4                   310.1218257505324
0.0015                    0.0015                   310.02570346266793
0.0015                    0.0025                   310.01667196112294
0.0015                    0.0035                   309.90677981452006
0.0015                    0.0045                   309.73194248235797
0.0015                    0.0055                   309.5459885997754
0.0015                    0.0065                   309.2113752314008
0.0015                    0.0075                   308.71734756142655
0.0015                    0.0085                   308.1527780682915
0.0015                    0.0095                   306.89629896848834
0.0015                    0.0105                   305.5896166584915
0.0015                    0.0115                   303.9411426771871
0.0015                    0.0125                   301.45736879994513
0.0015                    0.0135                   299.6231596090684
0.0015                    0.0145                   298.4152617628475
0.0015                    0.0155                   297.2607448420581
0.0015                    0.0165                   295.1947876514815
0.0015                    0.0175                   294.0009385781919
0.0015                    0.0185                   293.5162441475411
0.0015                    0.0195                   293.1307532748453
0.0015                    0.0205                   293.12606950596495
0.0015                    0.0215                   293.14004059949104
0.0015                    0.0225                   293.1501032979925
0.0015                    0.0235                   293.1525446039259
0.0015                    0.0245                   293.1545475679171
0.0015                    0.0255                   293.15514698072354
0.0015                    0.0265                   293.15548969069016
0.0015                    0.0275                   293.15595359294036
0.0015                    0.0285                   293.1565425734843
0.0015                    0.0295                   293.15958454671744
0.0015                    0.0305                   293.1628040130433
0.0015                    0.0315                   293.1770778665413
0.0025                    -0.0315                  366.15865840132136
0.0025                    -0.0305                  365.4915549490899
0.0025                    -0.0295                  364.6851909580367
0.0025                    -0.0285                  364.0214336996199
0.0025                    -0.0275                  362.65514137562457
0.0025                    -0.0265                  360.8671774160156
0.0025                    -0.0255                  359.0819283386219
0.0025                    -0.0245                  355.63546235095987
0.0025                    -0.0235                  351.220560067893
0.0025                    -0.0225                  346.8056577848262
0.0025                    -0.0215                  341.7881345030188
0.0025                    -0.0205                  336.33960052751513
0.0025                    -0.0195                  330.89106655201147
0.0025                    -0.0185                  327.1544185601864
0.0025                    -0.0175                  323.26126695051073
0.0025                    -0.0165                  319.6622648046449
0.0025                    -0.0155                  317.85059431123784
0.0025                    -0.0145                  315.9369631477492
0.0025                    -0.0135                  314.4169060417369
0.0025                    -0.0125                  313.6286056072254
0.0025                    -0.0115                  312.84030517271395
0.0025                    -0.0105                  312.28282501533937
0.0025                    -0.0095                  311.93626141392076
0.0025                    -0.0085                  311.5896978125021
0.0025                    -0.0075                  311.3699429940075
0.0025                    -0.0065                  311.182679324575
0.0025                    -0.0055                  310.9954156551425
0.0025                    -0.0045                  310.9273519656506
0.0025                    -0.0035                  310.8423889089882
0.0025                    -0.0025                  310.7574258523258
0.0025                    -0.0015                  310.791364934447
0.0025                    -5.0E-4                  310.78087688350644
0.0025                    5.0E-4                   310.79287501763713
0.0025                    0.0015                   310.7945426900398
0.0025                    0.0025                   310.7854275299736
0.0025                    0.0035                   310.72163238421564
0.0025                    0.0045                   310.53589554677274
0.0025                    0.0055                   310.35015870932983
0.0025                    0.0065                   309.9741749631577
0.0025                    0.0075                   309.45873039023064
0.0025                    0.0085                   308.94328581730355
0.0025                    0.0095                   307.94782131633997
0.0025                    0.0105                   306.6363856434539
0.0025                    0.0115                   305.3249499705679
0.0025                    0.0125                   303.68898377117534
0.0025                    0.0135                   301.8436855226165
0.0025                    0.0145                   299.92902987433945
0.0025                    0.0155                   297.7659237118186
0.0025                    0.0165                   295.6943689284848
0.0025                    0.0175                   294.0399935801372
0.0025                    0.0185                   293.64877620576124
0.0025                    0.0195                   293.2575588313853
0.0025                    0.0205                   293.12277197187467
0.0025                    0.0215                   293.136746820264
0.0025                    0.0225                   293.1506788667575
0.0025                    0.0235                   293.15485564447886
0.0025                    0.0245                   293.15686407474027
0.0025                    0.0255                   293.1584450623523
0.0025                    0.0265                   293.1588981191289
0.0025                    0.0275                   293.15935117590544
0.0025                    0.0285                   293.1618419540952
0.0025                    0.0295                   293.164767207198
0.0025                    0.0305                   293.17602028859835
0.0025                    0.0315                   293.193767213081
0.0035                    -0.0315                  362.81017506660237
0.0035                    -0.0305                  361.77781005944166
0.0035                    -0.0295                  360.91124033332414
0.0035                    -0.0285                  359.86220836502156
0.0035                    -0.0275                  357.8903097866915
0.0035                    -0.0265                  356.00108480900474
0.0035                    -0.0255                  353.523963540262
0.0035                    -0.0245                  348.74103218426217
0.0035                    -0.0235                  344.2423273491437
0.0035                    -0.0225                  339.7500668547844
0.0035                    -0.0215                  335.10998995081013
0.0035                    -0.0205                  329.71935034651733
0.0035                    -0.0195                  325.795271998862
0.0035                    -0.0185                  323.0757597218326
0.0035                    -0.0175                  319.18260811215697
0.0035                    -0.0165                  317.36809734265677
0.0035                    -0.0155                  316.0924707711823
0.0035                    -0.0145                  314.1788396076936
0.0035                    -0.0135                  313.63741890128813
0.0035                    -0.0125                  313.0668123587372
0.0035                    -0.0115                  312.3134453706058
0.0035                    -0.0105                  312.14830883128275
0.0035                    -0.0095                  311.8663798895544
0.0035                    -0.0085                  311.58909283348777
0.0035                    -0.0075                  311.55821556706246
0.0035                    -0.0065                  311.39946236953983
0.0035                    -0.0055                  311.33393588376305
0.0035                    -0.0045                  311.4632149592412
0.0035                    -0.0035                  311.3799399042641
0.0035                    -0.0025                  311.48378324481695
0.0035                    -0.0015                  311.69594306085133
0.0035                    -5.0E-4                  311.68545500991075
0.0035                    5.0E-4                   311.81051164046215
0.0035                    0.0015                   311.92390580596657
0.0035                    0.0025                   311.9147906459004
0.0035                    0.0035                   311.73377491513617
0.0035                    0.0045                   311.5405692169675
0.0035                    0.0055                   311.31782175801703
0.0035                    0.0065                   310.60870410724993
0.0035                    0.0075                   310.03305394442475
0.0035                    0.0085                   309.3695562388467
0.0035                    0.0095                   308.27048770195125
0.0035                    0.0105                   306.98758643509916
0.0035                    0.0115                   305.7244384365324
0.0035                    0.0125                   304.47984857614733
0.0035                    0.0135                   302.63455032758856
0.0035                    0.0145                   300.18639102688905
0.0035                    0.0155                   297.6664812184008
0.0035                    0.0165                   295.5979825678662
0.0035                    0.0175                   294.32076416037074
0.0035                    0.0185                   293.556485840832
0.0035                    0.0195                   293.254972321673
0.0035                    0.0205                   293.1301773464385
0.0035                    0.0215                   293.13456330737495
0.0035                    0.0225                   293.14808402133997
0.0035                    0.0235                   293.1582361521281
0.0035                    0.0245                   293.16024458238957
0.0035                    0.0255                   293.16139585765785
0.0035                    0.0265                   293.16214733847795
0.0035                    0.0275                   293.1635882503494
0.0035                    0.0285                   293.16656410865085
0.0035                    0.0295                   293.16950737765796
0.0035                    0.0305                   293.18432748866627
0.0035                    0.0315                   293.2050811821471
0.0045                    -0.0315                  359.5092186444207
0.0045                    -0.0305                  358.36782020795783
0.0045                    -0.0295                  357.17473819490704
0.0045                    -0.0285                  355.0694864089257
0.0045                    -0.0275                  353.1160744004479
0.0045                    -0.0265                  351.15357961942834
0.0045                    -0.0255                  346.7695517027331
0.0045                    -0.0245                  341.98662034673333
0.0045                    -0.0235                  337.26409463039437
0.0045                    -0.0225                  332.63505863376287
0.0045                    -0.0215                  327.99498172978866
0.0045                    -0.0205                  323.5058816132469
0.0045                    -0.0195                  320.9286078358325
0.0045                    -0.0185                  318.3513340584181
0.0045                    -0.0175                  316.08918177392513
0.0045                    -0.0165                  315.07392988066863
0.0045                    -0.0155                  314.05867798741207
0.0045                    -0.0145                  313.2100536500946
0.0045                    -0.0135                  312.8312770286233
0.0045                    -0.0125                  312.4525004071519
0.0045                    -0.0115                  312.1351401981987
0.0045                    -0.0105                  311.9700036588757
0.0045                    -0.0095                  311.7964983651882
0.0045                    -0.0085                  311.7122638689493
0.0045                    -0.0075                  311.68138660252407
0.0045                    -0.0065                  311.61624541450453
0.0045                    -0.0055                  311.7431248861141
0.0045                    -0.0045                  311.8724039615923
0.0045                    -0.0035                  311.97123133331644
0.0045                    -0.0025                  312.2280945801801
0.0045                    -0.0015                  312.4849578270437
0.0045                    -5.0E-4                  312.6510313176492
0.0045                    5.0E-4                   312.8281482632872
0.0045                    0.0015                   313.0052652089253
0.0045                    0.0025                   312.9489109923883
0.0045                    0.0035                   312.74772738678405
0.0045                    0.0045                   312.5465437811799
0.0045                    0.0055                   312.0087471121225
0.0045                    0.0065                   311.2996294613553
0.0045                    0.0075                   310.6073774986188
0.0045                    0.0085                   309.5934194834065
0.0045                    0.0095                   308.49435094651113
0.0045                    0.0105                   307.34632571807407
0.0045                    0.0115                   306.1390116518861
0.0045                    0.0125                   304.93169758569815
0.0045                    0.0135                   303.14553340001123
0.0045                    0.0145                   300.4437521794387
0.0045                    0.0155                   297.7419709588662
0.0045                    0.0165                   295.99496194739027
0.0045                    0.0175                   294.7177435398948
0.0045                    0.0185                   293.46419547590284
0.0045                    0.0195                   293.32740667422854
0.0045                    0.0205                   293.2026116989939
0.0045                    0.0215                   293.1321770600071
0.0045                    0.0225                   293.14548917592236
0.0045                    0.0235                   293.1588012918375
0.0045                    0.0245                   293.16311649738697
0.0045                    0.0255                   293.16426033744403
0.0045                    0.0265                   293.165396557827
0.0045                    0.0275                   293.1682926327094
0.0045                    0.0285                   293.1712499476171
0.0045                    0.0295                   293.1741818406305
0.0045                    0.0305                   293.1970274479912
0.0045                    0.0315                   293.2202221260638
0.0055                    -0.0315                  356.208262222239
0.0055                    -0.0305                  354.80795028072544
0.0055                    -0.0295                  353.31850756890066
0.0055                    -0.0285                  350.0252699259267
0.0055                    -0.0275                  348.018497372189
0.0055                    -0.0265                  344.8755699832018
0.0055                    -0.0255                  340.2745312579076
0.0055                    -0.0245                  335.47750428938576
0.0055                    -0.0235                  331.39145590256385
0.0055                    -0.0225                  327.33353134956315
0.0055                    -0.0215                  322.7183190966957
0.0055                    -0.0205                  320.48799452245953
0.0055                    -0.0195                  318.2645005688021
0.0055                    -0.0185                  315.69269417900597
0.0055                    -0.0175                  315.10867132427063
0.0055                    -0.0165                  314.13617077252314
0.0055                    -0.0155                  313.22458647719895
0.0055                    -0.0145                  312.9954515775664
0.0055                    -0.0135                  312.6121794885064
0.0055                    -0.0125                  312.3165384330586
0.0055                    -0.0115                  312.2107227399737
0.0055                    -0.0105                  312.04422065362746
0.0055                    -0.0095                  311.9938361859719
0.0055                    -0.0085                  312.0311498477939
0.0055                    -0.0075                  311.9994323135001
0.0055                    -0.0065                  312.1740031246702
0.0055                    -0.0055                  312.37141622624426
0.0055                    -0.0045                  312.4999375824109
0.0055                    -0.0035                  312.82841365402487
0.0055                    -0.0025                  313.11245223020484
0.0055                    -0.0015                  313.3689445448784
0.0055                    -5.0E-4                  313.5722028441907
0.0055                    5.0E-4                   313.7501620456972
0.0055                    0.0015                   313.89201565086597
0.0055                    0.0025                   313.70660577798776
0.0055                    0.0035                   313.50536318437383
0.0055                    0.0045                   313.16767698776664
0.0055                    0.0055                   312.46125203333804
0.0055                    0.0065                   311.7509751037283
0.0055                    0.0075                   310.72757947658636
0.0055                    0.0085                   309.4703134218788
0.0055                    0.0095                   308.36618069637063
0.0055                    0.0105                   307.0892195750591
0.0055                    0.0115                   305.8217131181318
0.0055                    0.0125                   304.60106809108703
0.0055                    0.0135                   303.0600538163102
0.0055                    0.0145                   300.48957340223956
0.0055                    0.0155                   297.8897348970196
0.0055                    0.0165                   295.77444840845754
0.0055                    0.0175                   294.49292656091063
0.0055                    0.0185                   293.63764647966343
0.0055                    0.0195                   293.2986472916816
0.0055                    0.0205                   293.17442990030804
0.0055                    0.0215                   293.13914295067013
0.0055                    0.0225                   293.14691397715455
0.0055                    0.0235                   293.1591450653418
0.0055                    0.0245                   293.16655400153417
0.0055                    0.0255                   293.1677237108067
0.0055                    0.0265                   293.1690726755671
0.0055                    0.0275                   293.17118974728197
0.0055                    0.0285                   293.17412164029537
0.0055                    0.0295                   293.18119315934103
0.0055                    0.0305                   293.207276925522
0.0055                    0.0315                   293.2353630699805
0.0065                    -0.0315                  352.85776722139235
0.0065                    -0.0305                  351.0248905989135
0.0065                    -0.0295                  349.38615096566747
0.0065                    -0.0285                  346.09291332269356
0.0065                    -0.0275                  342.71337499017585
0.0065                    -0.0265                  338.2390466512706
0.0065                    -0.0255                  333.7647183123653
0.0065                    -0.0245                  329.1093938257128
0.0065                    -0.0235                  325.6848841164728
0.0065                    -0.0225                  322.26037440723275
0.0065                    -0.0215                  318.85167088272715
0.0065                    -0.0205                  317.46130976697873
0.0065                    -0.0195                  315.9598030579442
0.0065                    -0.0185                  314.5720344083445
0.0065                    -0.0175                  314.07837315524813
0.0065                    -0.0165                  313.422931154815
0.0065                    -0.0155                  313.01336042537343
0.0065                    -0.0145                  312.8007757564752
0.0065                    -0.0135                  312.50270039891274
0.0065                    -0.0125                  312.3937302909177
0.0065                    -0.0115                  312.3110511302149
0.0065                    -0.0105                  312.18771966532626
0.0065                    -0.0095                  312.28124441668473
0.0065                    -0.0085                  312.3747691680432
0.0065                    -0.0075                  312.43531612658853
0.0065                    -0.0065                  312.74535576937296
0.0065                    -0.0055                  313.0514323127356
0.0065                    -0.0045                  313.277400806269
0.0065                    -0.0035                  313.66743214885116
0.0065                    -0.0025                  314.0314982983009
0.0065                    -0.0015                  314.2573735500439
0.0065                    -5.0E-4                  314.45660524490324
0.0065                    5.0E-4                   314.64774076777746
0.0065                    0.0015                   314.5725358884064
0.0065                    0.0025                   314.3897477532253
0.0065                    0.0035                   314.1969604148523
0.0065                    0.0045                   313.5566135241149
0.0065                    0.0055                   312.8519557859473
0.0065                    0.0065                   312.1079375327392
0.0065                    0.0075                   310.7062447460967
0.0065                    0.0085                   309.3045519594542
0.0065                    0.0095                   308.09688110555356
0.0065                    0.0105                   306.7351772134191