% Model:              SIMBench260525.mph
% Version:            COMSOL 6.2.0.339
% Date:               May 27 2026, 17:52
% Dimension:          2
% Nodes:              4096
% Expressions:        1
% Description:        温度
% Length unit:        m
% x                       y                        T (K)
% mirrored_by_python_y_to_minus_y, coord_match_decimals=12
0.0005 -0.0315 293.182602614
0.0005 -0.0305 293.172468774
0.0005 -0.0295 293.162384104
0.0005 -0.0285 293.156866778
0.0005 -0.0275 293.156272624
0.0005 -0.0265 293.15506157
0.0005 -0.0255 293.154926898
0.0005 -0.0245 293.155105869
0.0005 -0.0235 293.15223236
0.0005 -0.0225 293.14763026
0.0005 -0.0215 293.141041993
0.0005 -0.0205 293.13723338
0.0005 -0.0195 293.151314282
0.0005 -0.0185 293.445230822
0.0005 -0.0175 294.663405094
0.0005 -0.0165 295.976096459
0.0005 -0.0155 298.918209559
0.0005 -0.0145 300.505144261
0.0005 -0.0135 302.092078962
0.0005 -0.0125 306.956408656
0.0005 -0.0115 313.219117502
0.0005 -0.0105 318.881835063
0.0005 -0.0095 320.879411986
0.0005 -0.0085 322.596596867
0.0005 -0.0075 324.087892401
0.0005 -0.0065 324.818435473
0.0005 -0.0055 325.436329169
0.0005 -0.0045 325.972636062
0.0005 -0.0035 326.385239009
0.0005 -0.0025 326.793247634
0.0005 -0.0015 327.048799904
0.0005 -0.0005 327.496818362
0.0005 0.0005 327.944836821
0.0005 0.0015 328.23058408
0.0005 0.0025 328.796303688
0.0005 0.0035 329.350812302
0.0005 0.0045 329.778586078
0.0005 0.0055 330.446473207
0.0005 0.0065 331.054200052
0.0005 0.0075 331.649298665
0.0005 0.0085 332.380986824
0.0005 0.0095 333.035119866
0.0005 0.0105 333.792593376
0.0005 0.0115 334.612704315
0.0005 0.0125 335.384542405
0.0005 0.0135 336.358413666
0.0005 0.0145 337.342875868
0.0005 0.0155 338.354978783
0.0005 0.0165 339.637551348
0.0005 0.0175 340.920123912
0.0005 0.0185 342.412827777
0.0005 0.0195 344.289568157
0.0005 0.0205 346.184778495
0.0005 0.0215 348.681828916
0.0005 0.0225 351.623725516
0.0005 0.0235 354.713531845
0.0005 0.0245 358.532425438
0.0005 0.0255 362.521366335
0.0005 0.0265 366.796016629
0.0005 0.0275 370.649608091
0.0005 0.0285 374.329822433
0.0005 0.0295 377.67263026
0.0005 0.0305 379.25122363
0.0005 0.0315 380.820949621
0.0015 -0.0315 293.23382653
0.0015 -0.0305 293.189572819
0.0015 -0.0295 293.179174199
0.0015 -0.0285 293.168797168
0.0015 -0.0275 293.166440602
0.0015 -0.0265 293.164485972
0.0015 -0.0255 293.163012811
0.0015 -0.0245 293.162001844
0.0015 -0.0235 293.158507516
0.0015 -0.0225 293.154392283
0.0015 -0.0215 293.137570377
0.0015 -0.0205 293.114184375
0.0015 -0.0195 293.124552606
0.0015 -0.0185 293.765895371
0.0015 -0.0175 294.574410353
0.0015 -0.0165 296.739129059
0.0015 -0.0155 300.731710951
0.0015 -0.0145 303.400749654
0.0015 -0.0135 306.430115461
0.0015 -0.0125 310.591342864
0.0015 -0.0115 316.34346551
0.0015 -0.0105 319.653218641
0.0015 -0.0095 321.995789153
0.0015 -0.0085 323.744827576
0.0015 -0.0075 324.824541158
0.0015 -0.0065 325.804850425
0.0015 -0.0055 326.405381496
0.0015 -0.0045 326.862201761
0.0015 -0.0035 327.304092265
0.0015 -0.0025 327.638772223
0.0015 -0.0015 327.787413576
0.0015 -0.0005 328.080163154
0.0015 0.0005 328.381273515
0.0015 0.0015 328.508678007
0.0015 0.0025 328.923557739
0.0015 0.0035 329.285411756
0.0015 0.0045 329.52958088
0.0015 0.0055 330.12516725
0.0015 0.0065 330.562290351
0.0015 0.0075 330.945752054
0.0015 0.0085 331.677440213
0.0015 0.0095 332.211798977
0.0015 0.0105 332.793057653
0.0015 0.0115 333.59935278
0.0015 0.0125 334.333808084
0.0015 0.0135 335.154140872
0.0015 0.0145 336.131931359
0.0015 0.0155 337.096673048
0.0015 0.0165 338.225521424
0.0015 0.0175 339.530145287
0.0015 0.0185 340.855442906
0.0015 0.0195 342.563828828
0.0015 0.0205 344.576872775
0.0015 0.0215 346.650069265
0.0015 0.0225 349.483827482
0.0015 0.0235 352.901936911
0.0015 0.0245 356.409843094
0.0015 0.0255 360.417156192
0.0015 0.0265 365.054226718
0.0015 0.0275 369.536000707
0.0015 0.0285 373.114330054
0.0015 0.0295 376.525854585
0.0015 0.0305 378.796073471
0.0015 0.0315 379.841637795
0.0025 -0.0315 293.285050447
0.0025 -0.0305 293.229810729
0.0025 -0.0295 293.194315638
0.0025 -0.0285 293.184292674
0.0025 -0.0275 293.175624942
0.0025 -0.0265 293.173704062
0.0025 -0.0255 293.171783183
0.0025 -0.0245 293.168641763
0.0025 -0.0235 293.165137578
0.0025 -0.0225 293.157963461
0.0025 -0.0215 293.134619189
0.0025 -0.0205 293.11122644
0.0025 -0.0195 293.330309881
0.0025 -0.0185 293.982221917
0.0025 -0.0175 294.634133952
0.0025 -0.0165 297.754348622
0.0025 -0.0155 301.759335197
0.0025 -0.0145 305.947944157
0.0025 -0.0135 310.218951421
0.0025 -0.0125 314.401659163
0.0025 -0.0115 317.899950618
0.0025 -0.0105 320.248586266
0.0025 -0.0095 322.597221914
0.0025 -0.0085 324.539816505
0.0025 -0.0075 325.573483112
0.0025 -0.0065 326.607149719
0.0025 -0.0055 327.440742784
0.0025 -0.0045 327.896556054
0.0025 -0.0035 328.352369323
0.0025 -0.0025 328.610809495
0.0025 -0.0015 328.759445524
0.0025 -0.0005 328.888674487
0.0025 0.0005 328.979232742
0.0025 0.0015 329.107473034
0.0025 0.0025 329.150600278
0.0025 0.0035 329.396044788
0.0025 0.0045 329.641489298
0.0025 0.0055 329.837628621
0.0025 0.0065 330.222157789
0.0025 0.0075 330.606686957
0.0025 0.0085 330.991470445
0.0025 0.0095 331.524765419
0.0025 0.0105 332.058060394
0.0025 0.0115 332.654277578
0.0025 0.0125 333.390500525
0.0025 0.0135 334.126723471
0.0025 0.0145 334.96753076
0.0025 0.0155 335.932945489
0.0025 0.0165 336.861582327
0.0025 0.0175 338.118335938
0.0025 0.0185 339.44367748
0.0025 0.0195 340.76997491
0.0025 0.0205 342.84717111
0.0025 0.0215 344.92436731
0.0025 0.0225 347.343554816
0.0025 0.0235 350.828142979
0.0025 0.0245 354.312731141
0.0025 0.0255 358.252532684
0.0025 0.0265 362.719284978
0.0025 0.0275 367.194874159
0.0025 0.0285 371.471371364
0.0025 0.0295 374.822448019
0.0025 0.0305 377.259866179
0.0025 0.0315 378.86232597
0.0035 -0.0315 293.318821432
0.0035 -0.0305 293.254520269
0.0035 -0.0295 293.20811479
0.0035 -0.0285 293.19798005
0.0035 -0.0275 293.187643116
0.0035 -0.0265 293.182426756
0.0035 -0.0255 293.180086138
0.0035 -0.0245 293.177188381
0.0035 -0.0235 293.173684195
0.0035 -0.0225 293.156392305
0.0035 -0.0215 293.133513579
0.0035 -0.0205 293.124498344
0.0035 -0.0195 293.315730989
0.0035 -0.0185 293.811385083
0.0035 -0.0175 295.131119273
0.0035 -0.0165 297.387411856
0.0035 -0.0155 301.382724471
0.0035 -0.0145 306.287328245
0.0035 -0.0135 311.236556669
0.0035 -0.0125 315.41926441
0.0035 -0.0115 317.696131567
0.0035 -0.0105 319.956410043
0.0035 -0.0095 322.34078415
0.0035 -0.0085 324.954676557
0.0035 -0.0075 326.390227488
0.0035 -0.0065 327.604863991
0.0035 -0.0055 329.219357781
0.0035 -0.0045 329.759091058
0.0035 -0.0035 330.26778749
0.0035 -0.0025 330.789454795
0.0035 -0.0015 330.938090824
0.0035 -0.0005 330.866059221
0.0035 0.0005 330.766731673
0.0035 0.0015 330.894971965
0.0035 0.0025 330.599808168
0.0035 0.0035 330.500372934
0.0035 0.0045 330.74249788
0.0035 0.0055 330.549535546
0.0035 0.0065 330.712982757
0.0035 0.0075 331.041608948
0.0035 0.0085 331.118625107
0.0035 0.0095 331.552714823
0.0035 0.0105 331.994173104
0.0035 0.0115 332.269550747
0.0035 0.0125 332.980815508
0.0035 0.0135 333.556949671
0.0035 0.0145 334.050685603
0.0035 0.0155 335.016100331
0.0035 0.0165 335.753369541
0.0035 0.0175 336.58842892
0.0035 0.0185 337.913770461
0.0035 0.0195 338.990797578
0.0035 0.0205 340.521410953
0.0035 0.0215 342.587818116
0.0035 0.0225 344.514621309
0.0035 0.0235 347.464106853
0.0035 0.0245 351.013997099
0.0035 0.0255 354.785338919
0.0035 0.0265 359.091591757
0.0035 0.0275 363.896755437
0.0035 0.0285 368.970992856
0.0035 0.0295 372.829576042
0.0035 0.0305 374.881265701
0.0035 0.0315 376.813737839
0.0045 -0.0315 293.363511949
0.0045 -0.0305 293.292073665
0.0045 -0.0295 293.221711803
0.0045 -0.0285 293.211503086
0.0045 -0.0275 293.201220227
0.0045 -0.0265 293.19114945
0.0045 -0.0255 293.18826767
0.0045 -0.0245 293.18537517
0.0045 -0.0235 293.177464415
0.0045 -0.0225 293.154821148
0.0045 -0.0215 293.132177881
0.0045 -0.0205 293.238839143
0.0045 -0.0195 293.430071788
0.0045 -0.0185 293.640548249
0.0045 -0.0175 295.845397224
0.0045 -0.0165 298.101689807
0.0045 -0.0155 301.356027145
0.0045 -0.0145 306.626712333
0.0045 -0.0135 311.897397521
0.0045 -0.0125 315.361755035
0.0045 -0.0115 317.519899475
0.0045 -0.0105 319.678043915
0.0045 -0.0095 322.207743177
0.0045 -0.0085 324.821635584
0.0045 -0.0075 327.206971864
0.0045 -0.0065 328.771466402
0.0045 -0.0055 330.385960193
0.0045 -0.0045 331.630902651
0.0045 -0.0035 332.19598266
0.0045 -0.0025 332.761062669
0.0045 -0.0015 333.030271695
0.0045 -0.0005 332.843443955
0.0045 0.0005 332.656616215
0.0045 0.0015 332.462779494
0.0045 0.0025 332.082487867
0.0045 0.0035 331.70219624
0.0045 0.0045 331.584251568
0.0045 0.0055 331.391289234
0.0045 0.0065 331.203807726
0.0045 0.0075 331.348494609
0.0045 0.0085 331.425510768
0.0045 0.0095 331.580664228
0.0045 0.0105 331.868108654
0.0045 0.0115 332.143486297
0.0045 0.0125 332.532228565
0.0045 0.0135 332.967994718
0.0045 0.0145 333.403760872
0.0045 0.0155 333.999638907
0.0045 0.0165 334.645156754
0.0045 0.0175 335.290674602
0.0045 0.0185 336.247107207
0.0045 0.0195 337.294226802
0.0045 0.0205 338.341346398
0.0045 0.0215 340.170009548
0.0045 0.0225 342.096812741
0.0045 0.0235 344.100070726
0.0045 0.0245 347.824358809
0.0045 0.0255 351.59570063
0.0045 0.0265 355.524399297
0.0045 0.0275 360.599702269
0.0045 0.0285 365.676034406
0.0045 0.0295 370.715429771
0.0045 0.0305 372.825065776
0.0045 0.0315 374.873264186
0.0055 -0.0315 293.408202467
0.0055 -0.0305 293.322636022
0.0055 -0.0295 293.243021129
0.0055 -0.0285 293.219735552
0.0055 -0.0275 293.209526835
0.0055 -0.0265 293.201435044
0.0055 -0.0255 293.196770802
0.0055 -0.0245 293.19386441
0.0055 -0.0235 293.181282978
0.0055 -0.0225 293.160563346
0.0055 -0.0215 293.145359155
0.0055 -0.0205 293.189596296
0.0055 -0.0195 293.37996411
0.0055 -0.0185 293.921734209
0.0055 -0.0175 295.383578123
0.0055 -0.0165 297.647458074
0.0055 -0.0155 301.418271198
0.0055 -0.0145 306.400913585
0.0055 -0.0135 311.409619228
0.0055 -0.0125 314.324979146
0.0055 -0.0115 316.498507005
0.0055 -0.0105 318.78980722
0.0055 -0.0095 321.348481834
0.0055 -0.0085 323.972410532
0.0055 -0.0075 326.988623432
0.0055 -0.0065 329.409671933
0.0055 -0.0055 331.026427407
0.0055 -0.0045 332.765199464
0.0055 -0.0035 333.667972078
0.0055 -0.0025 334.233572493
0.0055 -0.0015 334.818704623
0.0055 -0.0005 334.709409273
0.0055 0.0005 334.517739239
0.0055 0.0015 334.176841911
0.0055 0.0025 333.797029831
0.0055 0.0035 333.372232815
0.0055 0.0045 332.869857813
0.0055 0.0055 332.678283444
0.0055 0.0065 332.398846308
0.0055 0.0075 332.175296262
0.0055 0.0085 332.254557965
0.0055 0.0095 332.22015177
0.0055 0.0105 332.31856547
0.0055 0.0115 332.597556965
0.0055 0.0125 332.738160088
0.0055 0.0135 333.077140862
0.0055 0.0145 333.518397491
0.0055 0.0155 333.767816662
0.0055 0.0165 334.361466707
0.0055 0.0175 334.988176454
0.0055 0.0185 335.417642561
0.0055 0.0195 336.462616432
0.0055 0.0205 337.421963818
0.0055 0.0215 338.479532269
0.0055 0.0225 340.396499834
0.0055 0.0235 342.217254392
0.0055 0.0245 344.929773367
0.0055 0.0255 348.71806993
0.0055 0.0265 352.711415704
0.0055 0.0275 357.339287072
0.0055 0.0285 362.437939496
0.0055 0.0295 368.074709886
0.0055 0.0305 370.576814988
0.0055 0.0315 372.932790533
0.0065 -0.0315 293.438624126
0.0065 -0.0305 293.339428626
0.0065 -0.0295 293.26442951
0.0065 -0.0285 293.239636131
0.0065 -0.0275 293.218442446
0.0065 -0.0265 293.211830115
0.0065 -0.0255 293.205301087
0.0065 -0.0245 293.198834802
0.0065 -0.0235 293.183305691
0.0065 -0.0225 293.16721555
0.0065 -0.0215 293.181942526
0.0065 -0.0205 293.217176814
0.0065 -0.0195 293.350066833
0.0065 -0.0185 294.232675938
0.0065 -0.0175 295.115285043
0.0065 -0.0165 297.835366773
0.0065 -0.0155 301.883274057
0.0065 -0.0145 306.11427454
0.0065 -0.0135 309.770632765
0.0065 -0.0125 312.740687978
0.0065 -0.0115 315.338067218
0.0065 -0.0105 317.840818563
0.0065 -0.0095 320.367733571
0.0065 -0.0085 323.05415567
0.0065 -0.0075 326.439219178
0.0065 -0.0065 329.824282686
0.0065 -0.0055 331.587554645
0.0065 -0.0045 333.382125955
0.0065 -0.0035 335.02408951
0.0065 -0.0025 335.600114239
0.0065 -0.0015 336.188485172
0.0065 -0.0005 336.546975159
0.0065 0.0005 336.264764574
0.0065 0.0015 335.926806198
0.0065 0.0025 335.569391634
0.0065 0.0035 335.013478618
0.0065 0.0045 334.414795699
0.0065 0.0055 334.071861616
0.0065 0.0065 333.653432979
0.0065 0.0075 333.229544984
0.0065 0.0085 333.170775869
0.0065 0.0095 333.043397358
0.0065 0.0105 332.916018846
0.0065 0.0115 333.109286717
0.0065 0.0125 333.197260432
0.0065 0.0135 333.316924173
0.0065 0.0145 333.652440355
0.0065 0.0155 333.881870814
0.0065 0.0165 334.214272561
0.0065 0.0175 334.692773027
0.0065 0.0185 335.093913382
0.0065 0.0195 335.77215858
0.0065 0.0205 336.554125432
0.0065 0.0215 337.308793477
0.0065 0.0225 338.814505403
0.0065 0.0235 340.525916571
0.0065 0.0245 342.237327739
0.0065 0.0255 345.905299468
0.0065 0.0265 350.031209469
0.0065 0.0275 354.15711947
0.0065 0.0285 359.664926602
0.0065 0.0295 365.301696993
0.0065 0.0305 368.063252806
0.0065 0.0315 370.612039871
0.0075 -0.0315 293.494079413
0.0075 -0.0305 293.37942418
0.0075 -0.0295 293.284313492
0.0075 -0.0285 293.255774162
0.0075 -0.0275 293.229332223
0.0075 -0.0265 293.222570235
0.0075 -0.0255 293.21575952
0.0075 -0.0245 293.202216268
0.0075 -0.0235 293.187172384
0.0075 -0.0225 293.173344245
0.0075 -0.0215 293.188743194
0.0075 -0.0205 293.223138668
0.0075 -0.0195 293.403676112
0.0075 -0.0185 294.163289558
0.0075 -0.0175 295.046440878
0.0075 -0.0165 297.417082256
0.0075 -0.0155 301.490134246
0.0075 -0.0145 305.587710055
0.0075 -0.0135 309.062549486
0.0075 -0.0125 311.990344056
0.0075 -0.0115 314.237915327
0.0075 -0.0105 316.671515793
0.0075 -0.0095 319.207954397
0.0075 -0.0085 322.135635011
0.0075 -0.0075 325.531093422
0.0075 -0.0065 328.926551833
0.0075 -0.0055 331.854769716
0.0075 -0.0045 333.65102192
0.0075 -0.0035 335.432660882
0.0075 -0.0025 336.477567558
0.0075 -0.0015 337.065451514
0.0075 -0.0005 337.592119107
0.0075 0.0005 337.455889204
0.0075 0.0015 337.115670306
0.0075 0.0025 336.809045486
0.0075 0.0035 336.256752952
0.0075 0.0045 335.655565288
0.0075 0.0055 335.174414745
0.0075 0.0065 334.749147226
0.0075 0.0075 334.323879707
0.0075 0.0085 334.071636683
0.0075 0.0095 333.945228751
0.0075 0.0105 333.818820818
0.0075 0.0115 333.807559037
0.0075 0.0125 333.899892101
0.0075 0.0135 333.985461306
0.0075 0.0145 334.104656962
0.0075 0.0155 334.340852367
0.0075 0.0165 334.518086076
0.0075 0.0175 334.779429928
0.0075 0.0185 335.187624223
0.0075 0.0195 335.477399291
0.0075 0.0205 336.13068981
0.0075 0.0215 336.878076513
0.0075 0.0225 337.616760913
0.0075 0.0235 339.224606365
0.0075 0.0245 340.832451818
0.0075 0.0255 343.221018249
0.0075 0.0265 347.343841322
0.0075 0.0275 351.466664394
0.0075 0.0285 357.01337378
0.0075 0.0295 362.59937256
0.0075 0.0305 365.893153475
0.0075 0.0315 368.588132089
0.0085 -0.0315 293.547603488
0.0085 -0.0305 293.414784762
0.0085 -0.0295 293.305519445
0.0085 -0.0285 293.271333578
0.0085 -0.0275 293.240297893
0.0085 -0.0265 293.232944447
0.0085 -0.0255 293.224931626
0.0085 -0.0245 293.210666629
0.0085 -0.0235 293.1930027
0.0085 -0.0225 293.185457625
0.0085 -0.0215 293.187140157
0.0085 -0.0205 293.237629509
0.0085 -0.0195 293.527086099
0.0085 -0.0185 293.914365787
0.0085 -0.0175 295.404430251
0.0085 -0.0165 297.402976336
0.0085 -0.0155 300.630166757
0.0085 -0.0145 304.777174651
0.0085 -0.0135 308.932375984
0.0085 -0.0125 311.718305679
0.0085 -0.0115 313.373365367
0.0085 -0.0105 315.303328431
0.0085 -0.0095 317.996243933
0.0085 -0.0085 321.002972739
0.0085 -0.0075 324.219007705
0.0085 -0.0065 327.691880064
0.0085 -0.0055 331.244977685
0.0085 -0.0045 333.491093697
0.0085 -0.0035 335.120901235
0.0085 -0.0025 336.664015937
0.0085 -0.0015 337.330693754
0.0085 -0.0005 337.698064037
0.0085 0.0005 337.963129257
0.0085 0.0015 337.623179928
0.0085 0.0025 337.366153277
0.0085 0.0035 337.023400717
0.0085 0.0045 336.458636303
0.0085 0.0055 336.067277185
0.0085 0.0065 335.662184764
0.0085 0.0075 335.309446706
0.0085 0.0085 335.096948996
0.0085 0.0095 334.932183544
0.0085 0.0105 334.84441531
0.0085 0.0115 334.794088687
0.0085 0.0125 334.843336863
0.0085 0.0135 334.884826327
0.0085 0.0145 334.902315018
0.0085 0.0155 335.102798886
0.0085 0.0165 335.156439907
0.0085 0.0175 335.182911082
0.0085 0.0185 335.555979123
0.0085 0.0195 335.733376476
0.0085 0.0205 336.054981972
0.0085 0.0215 336.699525966
0.0085 0.0225 337.196871323
0.0085 0.0235 338.511633528
0.0085 0.0245 339.948431096
0.0085 0.0255 342.139794534
0.0085 0.0265 345.07653319
0.0085 0.0275 348.870255843
0.0085 0.0285 354.637668679
0.0085 0.0295 360.574338669
0.0085 0.0305 363.865100063
0.0085 0.0315 366.563770221
0.0095 -0.0315 293.593108577
0.0095 -0.0305 293.438777693
0.0095 -0.0295 293.327594516
0.0095 -0.0285 293.29330397
0.0095 -0.0275 293.254093069
0.0095 -0.0265 293.242396345
0.0095 -0.0255 293.234103731
0.0095 -0.0245 293.220187455
0.0095 -0.0235 293.202102492
0.0095 -0.0225 293.193339349
0.0095 -0.0215 293.195392088
0.0095 -0.0205 293.267293915
0.0095 -0.0195 293.552798067
0.0095 -0.0185 293.883710551
0.0095 -0.0175 295.34637961
0.0095 -0.0165 297.365512349
0.0095 -0.0155 299.87554214
0.0095 -0.0145 304.023862384
0.0095 -0.0135 308.172182629
0.0095 -0.0125 310.924229208
0.0095 -0.0115 312.566861396
0.0095 -0.0105 314.209493584
0.0095 -0.0095 316.870371753
0.0095 -0.0085 319.881852695
0.0095 -0.0075 322.8726639
0.0095 -0.0065 326.389913818
0.0095 -0.0055 329.950501643
0.0095 -0.0045 333.147040294
0.0095 -0.0035 334.6899067
0.0095 -0.0025 336.232773107
0.0095 -0.0015 337.388143174
0.0095 -0.0005 337.708639696
0.0095 0.0005 338.029136218
0.0095 0.0015 338.082623888
0.0095 0.0025 337.822958193
0.0095 0.0035 337.563292497
0.0095 0.0045 337.242826042
0.0095 0.0055 336.84767827
0.0095 0.0065 336.452530498
0.0095 0.0075 336.245724749
0.0095 0.0085 336.028698357
0.0095 0.0095 335.844777583
0.0095 0.0105 335.800383909
0.0095 0.0115 335.745836732
0.0095 0.0125 335.752950731
0.0095 0.0135 335.769008713
0.0095 0.0145 335.785066694
0.0095 0.0155 335.894917869
0.0095 0.0165 335.941887541
0.0095 0.0175 335.988857214
0.0095 0.0185 335.993603967
0.0095 0.0195 336.174397008
0.0095 0.0205 336.344580212
0.0095 0.0215 336.641401512
0.0095 0.0225 337.167498184
0.0095 0.0235 337.788267972
0.0095 0.0245 339.020337937
0.0095 0.0255 341.224670202
0.0095 0.0265 344.116892471
0.0095 0.0275 347.159135702
0.0095 0.0285 352.612634787
0.0095 0.0295 358.549304777
0.0095 0.0305 361.835068862
0.0095 0.0315 364.81935497
0.0105 -0.0315 293.664724801
0.0105 -0.0305 293.501330755
0.0105 -0.0295 293.348303083
0.0105 -0.0285 293.306876017
0.0105 -0.0275 293.267665117
0.0105 -0.0265 293.254839169
0.0105 -0.0255 293.244986841
0.0105 -0.0245 293.229985052
0.0105 -0.0235 293.21205687
0.0105 -0.0225 293.197039754
0.0105 -0.0215 293.215405186
0.0105 -0.0205 293.292339386
0.0105 -0.0195 293.462820351
0.0105 -0.0185 294.051491058
0.0105 -0.0175 294.820162781
0.0105 -0.0165 296.942548358
0.0105 -0.0155 299.865409313
0.0105 -0.0145 303.368766618
0.0105 -0.0135 307.074804536
0.0105 -0.0125 310.126667488
0.0105 -0.0115 311.956708361
0.0105 -0.0105 313.627324282
0.0105 -0.0095 315.505090212
0.0105 -0.0085 318.516571154
0.0105 -0.0075 321.373408555
0.0105 -0.0065 324.429205555
0.0105 -0.0055 327.98979338
0.0105 -0.0045 330.973135573
0.0105 -0.0035 333.137489324
0.0105 -0.0025 334.679267652
0.0105 -0.0015 336.183216032
0.0105 -0.0005 336.849773503
0.0105 0.0005 337.189353247
0.0105 0.0015 337.603872952
0.0105 0.0025 337.431158017
0.0105 0.0035 337.244115979
0.0105 0.0045 337.170848742
0.0105 0.0055 336.77570097
0.0105 0.0065 336.553945586
0.0105 0.0075 336.456682743
0.0105 0.0085 336.239656351
0.0105 0.0095 336.248486923
0.0105 0.0105 336.303967485
0.0105 0.0115 336.249420308
0.0105 0.0125 336.445637976
0.0105 0.0135 336.583311142
0.0105 0.0145 336.608503987
0.0105 0.0155 336.971908076
0.0105 0.0165 337.159899672
0.0105 0.0175 337.148098069
0.0105 0.0185 336.983123704
0.0105 0.0195 337.01900061
0.0105 0.0205 337.031794008
0.0105 0.0215 336.931853701
0.0105 0.0225 337.417617373
0.0105 0.0235 338.079553538
0.0105 0.0245 338.748910334
0.0105 0.0255 340.103074506
0.0105 0.0265 342.827883587
0.0105 0.0275 345.970216914
0.0105 0.0285 351.414244578
0.0105 0.0295 356.867843922
0.0105 0.0305 360.318621345
0.0105 0.0315 363.418641407
0.0115 -0.0315 293.728876342
0.0115 -0.0305 293.539026167
0.0115 -0.0295 293.374742737
0.0115 -0.0285 293.32755585
0.0115 -0.0275 293.281237164
0.0115 -0.0265 293.266347367
0.0115 -0.0255 293.254938132
0.0115 -0.0245 293.240264049
0.0115 -0.0235 293.222182038
0.0115 -0.0225 293.204100027
0.0115 -0.0215 293.258342056
0.0115 -0.0205 293.326990413
0.0115 -0.0195 293.421833158
0.0115 -0.0185 294.091144642
0.0115 -0.0175 294.853033
0.0115 -0.0165 296.734381829
0.0115 -0.0155 299.729505072
0.0115 -0.0145 302.745728276
0.0115 -0.0135 305.724671477
0.0115 -0.0125 308.764977556
0.0115 -0.0115 311.355039539
0.0115 -0.0105 313.048001162
0.0115 -0.0095 314.740962784
0.0115 -0.0085 317.083998533
0.0115 -0.0075 319.874153211
0.0115 -0.0065 322.664307889
0.0115 -0.0055 325.719536853
0.0115 -0.0045 328.608200351
0.0115 -0.0035 331.496863849
0.0115 -0.0025 333.103556927
0.0115 -0.0015 334.607505307
0.0115 -0.0005 335.99090731
0.0115 0.0005 336.386921184
0.0115 0.0015 336.801440889
0.0115 0.0025 337.039357841
0.0115 0.0035 336.96939853
0.0115 0.0045 336.90500683
0.0115 0.0055 336.747263395
0.0115 0.0065 336.675368343
0.0115 0.0075 336.603473291
0.0115 0.0085 336.54579806
0.0115 0.0095 336.652196263
0.0115 0.0105 336.758594466
0.0115 0.0115 336.884773209
0.0115 0.0125 337.121671203
0.0115 0.0135 337.358569198
0.0115 0.0145 337.620944948
0.0115 0.0155 337.984349037
0.0115 0.0165 338.347753127
0.0115 0.0175 338.198639474
0.0115 0.0185 337.911027367
0.0115 0.0195 337.796784725
0.0115 0.0205 337.744168087
0.0115 0.0215 337.624170974
0.0115 0.0225 337.682846447
0.0115 0.0235 338.207105668
0.0115 0.0245 338.731364889
0.0115 0.0255 340.061462198
0.0115 0.0265 341.978149569
0.0115 0.0275 344.781298126
0.0115 0.0285 350.255235955
0.0115 0.0295 355.731166205
0.0115 0.0305 359.099382761
0.0115 0.0315 362.057485
0.0125 -0.0315 293.795669582
0.0125 -0.0305 293.56837759
0.0125 -0.0295 293.401182391
0.0125 -0.0285 293.352531785
0.0125 -0.0275 293.298774598
0.0125 -0.0265 293.277803248
0.0125 -0.0255 293.264877132
0.0125 -0.0245 293.250543045
0.0125 -0.0235 293.232560268
0.0125 -0.0225 293.214717425
0.0125 -0.0215 293.245583784
0.0125 -0.0205 293.307296313
0.0125 -0.0195 293.491340457
0.0125 -0.0185 293.88352288
0.0125 -0.0175 294.808916063
0.0125 -0.0165 296.003799284
0.0125 -0.0155 298.998922526
0.0125 -0.0145 302.278299191
0.0125 -0.0135 305.388779215
0.0125 -0.0125 308.349199534
0.0125 -0.0115 310.62264229
0.0125 -0.0105 312.424559525
0.0125 -0.0095 314.1185646
0.0125 -0.0085 315.518578734
0.0125 -0.0075 318.241279187
0.0125 -0.0065 320.968344608
0.0125 -0.0055 322.867948558
0.0125 -0.0045 325.760847707
0.0125 -0.0035 328.333555462
0.0125 -0.0025 329.815096793
0.0125 -0.0015 331.312157603
0.0125 -0.0005 332.489074952
0.0125 0.0005 333.047373341
0.0125 0.0015 333.453171705
0.0125 0.0025 333.657437953
0.0125 0.0035 333.625327399
0.0125 0.0045 333.54704065
0.0125 0.0055 333.422028226
0.0125 0.0065 333.31945203
0.0125 0.0075 333.226799146
0.0125 0.0085 333.394389584
0.0125 0.0095 333.482187418
0.0125 0.0105 333.601086837
0.0125 0.0115 334.440749088
0.0125 0.0125 334.661673767
0.0125 0.0135 335.095225503
0.0125 0.0145 336.181453255
0.0125 0.0155 336.401783683
0.0125 0.0165 337.005851645
0.0125 0.0175 338.090728271
0.0125 0.0185 337.803116164
0.0125 0.0195 338.306094737
0.0125 0.0205 338.621711284
0.0125 0.0215 338.461744329
0.0125 0.0225 338.218543379
0.0125 0.0235 338.340502833
0.0125 0.0245 338.713819443
0.0125 0.0255 340.104142487
0.0125 0.0265 341.871871381
0.0125 0.0275 344.24750186
0.0125 0.0285 349.209611439
0.0125 0.0295 354.594488488
0.0125 0.0305 357.928948748
0.0125 0.0315 361.018601119
0.0135 -0.0315 293.891974352
0.0135 -0.0305 293.661361122
0.0135 -0.0295 293.42848883
0.0135 -0.0285 293.368293763
0.0135 -0.0275 293.314536576
0.0135 -0.0265 293.292209994
0.0135 -0.0255 293.278028745
0.0135 -0.0245 293.261154394
0.0135 -0.0235 293.243236854
0.0135 -0.0225 293.225394012
0.0135 -0.0215 293.259349597
0.0135 -0.0205 293.297300982
0.0135 -0.0195 293.533940625
0.0135 -0.0185 293.876288943
0.0135 -0.0175 294.771794005
0.0135 -0.0165 295.939197847
0.0135 -0.0155 298.506122655
0.0135 -0.0145 301.810870107
0.0135 -0.0135 305.052886953
0.0135 -0.0125 307.630356535
0.0135 -0.0115 309.739552422
0.0135 -0.0105 311.792156385
0.0135 -0.0095 313.321299099
0.0135 -0.0085 314.691009035
0.0135 -0.0075 316.570970697
0.0135 -0.0065 318.65925838
0.0135 -0.0055 320.387982827
0.0135 -0.0045 322.754309237
0.0135 -0.0035 324.476481507
0.0135 -0.0025 325.950352511
0.0135 -0.0015 327.434505418
0.0135 -0.0005 328.141909359
0.0135 0.0005 328.8493133
0.0135 0.0015 329.228035951
0.0135 0.0025 329.281924074
0.0135 0.0035 329.330706061
0.0135 0.0045 329.23116406
0.0135 0.0055 329.089231582
0.0135 0.0065 328.956302825
0.0135 0.0075 329.006945309
0.0135 0.0085 329.205860906
0.0135 0.0095 329.36689538
0.0135 0.0105 329.968817549
0.0135 0.0115 330.859907798
0.0135 0.0125 331.44404259
0.0135 0.0135 332.53586557
0.0135 0.0145 333.844003736
0.0135 0.0155 334.514244345
0.0135 0.0165 335.679567819
0.0135 0.0175 337.074218544
0.0135 0.0185 338.073888824
0.0135 0.0195 338.658889983
0.0135 0.0205 339.267389076
0.0135 0.0215 339.134162253
0.0135 0.0225 338.872306596
0.0135 0.0235 338.99426605
0.0135 0.0245 339.074789666
0.0135 0.0255 339.848796198
0.0135 0.0265 341.516070264
0.0135 0.0275 343.948845373
0.0135 0.0285 348.910954952
0.0135 0.0295 353.803148288
0.0135 0.0305 356.980840778
0.0135 0.0315 360.085113093
0.0145 -0.0315 293.972231205
0.0145 -0.0305 293.70408554
0.0145 -0.0295 293.463080906
0.0145 -0.0285 293.397901147
0.0145 -0.0275 293.332721387
0.0145 -0.0265 293.305197975
0.0145 -0.0255 293.289203286
0.0145 -0.0245 293.272357819
0.0145 -0.0235 293.254178003
0.0145 -0.0225 293.236070598
0.0145 -0.0215 293.267540939
0.0145 -0.0205 293.297391587
0.0145 -0.0195 293.505540583
0.0145 -0.0185 293.810274885
0.0145 -0.0175 294.654609457
0.0145 -0.0165 295.721820872
0.0145 -0.0155 297.903682271
0.0145 -0.0145 301.252742515
0.0145 -0.0135 304.56895514
0.0145 -0.0125 307.044532274
0.0145 -0.0115 309.208182199
0.0145 -0.0105 311.300571606
0.0145 -0.0095 312.57836754
0.0145 -0.0085 313.943944558
0.0145 -0.0075 315.098818352
0.0145 -0.0065 316.552187869
0.0145 -0.0055 318.277601404
0.0145 -0.0045 319.443057649
0.0145 -0.0035 320.866495008
0.0145 -0.0025 322.341964221
0.0145 -0.0015 322.945306328
0.0145 -0.0005 323.65181952
0.0145 0.0005 324.358332712
0.0145 0.0015 324.298277429
0.0145 0.0025 324.34887192
0.0145 0.0035 324.39946641
0.0145 0.0045 324.135041328
0.0145 0.0055 323.985173119
0.0145 0.0065 323.830781282
0.0145 0.0075 323.851341341
0.0145 0.0085 324.041042417
0.0145 0.0095 324.209948406
0.0145 0.0105 324.851260887
0.0145 0.0115 325.718596986
0.0145 0.0125 326.550611197
0.0145 0.0135 328.060862718
0.0145 0.0145 329.655689666
0.0145 0.0155 331.390196835
0.0145 0.0165 332.903080695
0.0145 0.0175 333.683936752
0.0145 0.0185 335.652868008
0.0145 0.0195 336.672515898
0.0145 0.0205 337.429240171
0.0145 0.0215 338.555055025
0.0145 0.0225 339.524703856
0.0145 0.0235 339.524680534
0.0145 0.0245 339.524657213
0.0145 0.0255 340.300209616
0.0145 0.0265 341.494947114
0.0145 0.0275 343.626973863
0.0145 0.0285 348.457401748
0.0145 0.0295 353.287829632
0.0145 0.0305 356.405662518
0.0145 0.0315 359.258715045
0.0155 -0.0315 294.073351645
0.0155 -0.0305 293.745633618
0.0155 -0.0295 293.497672983
0.0155 -0.0285 293.429057784
0.0155 -0.0275 293.353899317
0.0155 -0.0265 293.319863822
0.0155 -0.0255 293.300377827
0.0155 -0.0245 293.283561243
0.0155 -0.0235 293.26522705
0.0155 -0.0225 293.246722865
0.0155 -0.0215 293.266945935
0.0155 -0.0205 293.293937261
0.0155 -0.0195 293.508403998
0.0155 -0.0185 293.788123305
0.0155 -0.0175 294.463783615
0.0155 -0.0165 295.486442482
0.0155 -0.0155 297.28784745
0.0155 -0.0145 300.56165951
0.0155 -0.0135 303.793101977
0.0155 -0.0125 306.897874515
0.0155 -0.0115 309.193027168
0.0155 -0.0105 310.767592409
0.0155 -0.0095 311.938636438
0.0155 -0.0085 313.30010354
0.0155 -0.0075 313.973401742
0.0155 -0.0065 314.736817356
0.0155 -0.0055 316.419466526
0.0155 -0.0045 316.833219282
0.0155 -0.0035 317.627012315
0.0155 -0.0025 318.74977459
0.0155 -0.0015 318.642172954
0.0155 -0.0005 318.954162562
0.0155 0.0005 319.212649119
0.0155 0.0015 318.750280913
0.0155 0.0025 318.630772069
0.0155 0.0035 318.438460329
0.0155 0.0045 318.038358236
0.0155 0.0055 317.841380568
0.0155 0.0065 317.656902637
0.0155 0.0075 317.456704247
0.0155 0.0085 317.62648273
0.0155 0.0095 317.743660188
0.0155 0.0105 317.917155903
0.0155 0.0115 318.781244957
0.0155 0.0125 319.563424243
0.0155 0.0135 320.670169118
0.0155 0.0145 322.242937144
0.0155 0.0155 323.712661184
0.0155 0.0165 327.011400766
0.0155 0.0175 329.973215432
0.0155 0.0185 332.310703756
0.0155 0.0195 334.64819208
0.0155 0.0205 335.594063944
0.0155 0.0215 336.823962246
0.0155 0.0225 338.054443923
0.0155 0.0235 339.293465436
0.0155 0.0245 339.974524759
0.0155 0.0255 340.751623033
0.0155 0.0265 341.806776244
0.0155 0.0275 343.674243617
0.0155 0.0285 348.076837932
0.0155 0.0295 352.772510977
0.0155 0.0305 355.877317507
0.0155 0.0315 358.692845707
0.0165 -0.0315 294.208753717
0.0165 -0.0305 293.881035689
0.0165 -0.0295 293.536118325
0.0165 -0.0285 293.44749945
0.0165 -0.0275 293.372340982
0.0165 -0.0265 293.337930217
0.0165 -0.0255 293.317089896
0.0165 -0.0245 293.294970629
0.0165 -0.0235 293.27586883
0.0165 -0.0225 293.257406736
0.0165 -0.0215 293.277785047
0.0165 -0.0205 293.297204292
0.0165 -0.0195 293.476346392
0.0165 -0.0185 293.746242948
0.0165 -0.0175 294.346609743
0.0165 -0.0165 295.359873726
0.0165 -0.0155 296.617458185
0.0165 -0.0145 299.810057394
0.0165 -0.0135 303.009977711