% Model:              SIMBench260525.mph
% Version:            COMSOL 6.2.0.339
% Date:               May 27 2026, 17:36
% Dimension:          2
% Nodes:              4096
% Expressions:        1
% Description:        温度
% Length unit:        m
% x                       y                        T (K)
5.0E-4                    -0.0315                  365.73655870100623
5.0E-4                    -0.0305                  364.56700428205147
5.0E-4                    -0.0295                  363.3853695427613
5.0E-4                    -0.0285                  360.8723979998779
5.0E-4                    -0.0275                  357.80658108771416
5.0E-4                    -0.0265                  354.63775845642635
5.0E-4                    -0.0255                  350.1169210475706
5.0E-4                    -0.0245                  345.5875446443857
5.0E-4                    -0.0235                  340.9377819849796
5.0E-4                    -0.0225                  336.1467220949367
5.0E-4                    -0.0215                  331.6242557205447
5.0E-4                    -0.0205                  327.3594104028708
5.0E-4                    -0.0195                  323.99648783848573
5.0E-4                    -0.0185                  320.7802743501605
5.0E-4                    -0.0175                  318.1343840179568
5.0E-4                    -0.0165                  316.2633248631603
5.0E-4                    -0.0155                  314.40104892046946
5.0E-4                    -0.0145                  313.121023036862
5.0E-4                    -0.0135                  312.0357397632082
5.0E-4                    -0.0125                  310.9360912193367
5.0E-4                    -0.0115                  310.28701776873737
5.0E-4                    -0.0105                  309.54360218363473
5.0E-4                    -0.0095                  308.8001865985321
5.0E-4                    -0.0085                  308.40605314487647
5.0E-4                    -0.0075                  307.73618975265384
5.0E-4                    -0.0065                  307.06632636043116
5.0E-4                    -0.0055                  306.8066479565259
5.0E-4                    -0.0045                  306.18155541488
5.0E-4                    -0.0035                  305.59523913711524
5.0E-4                    -0.0025                  305.4306355779564
5.0E-4                    -0.0015                  304.9367139507132
5.0E-4                    -5.0E-4                  304.5321277421522
5.0E-4                    5.0E-4                   304.1612528329759
5.0E-4                    0.0015                   303.5070898443425
5.0E-4                    0.0025                   302.9184282934474
5.0E-4                    0.0035                   301.85044068434786
5.0E-4                    0.0045                   300.50957081769764
5.0E-4                    0.0055                   299.07961956447497
5.0E-4                    0.0065                   297.62730912748896
5.0E-4                    0.0075                   296.1949905986874
5.0E-4                    0.0085                   294.10066774565
5.0E-4                    0.0095                   293.8143477215116
5.0E-4                    0.0105                   293.64766110030763
5.0E-4                    0.0115                   293.4880178459249
5.0E-4                    0.0125                   293.558263780802
5.0E-4                    0.0135                   293.6285097156792
5.0E-4                    0.0145                   293.2985788839867
5.0E-4                    0.0155                   293.20798997765723
5.0E-4                    0.0165                   293.1896479514786
5.0E-4                    0.0175                   293.2425896184701
5.0E-4                    0.0185                   293.39345372859685
5.0E-4                    0.0195                   293.34720176282667
5.0E-4                    0.0205                   293.30094979705643
5.0E-4                    0.0215                   293.3098815483054
5.0E-4                    0.0225                   293.3355478702169
5.0E-4                    0.0235                   293.55764164056137
5.0E-4                    0.0245                   294.3238026321962
5.0E-4                    0.0255                   294.9725672444749
5.0E-4                    0.0265                   296.31167487568337
5.0E-4                    0.0275                   299.74641908985063
5.0E-4                    0.0285                   303.41574265023905
5.0E-4                    0.0295                   306.3550365849916
5.0E-4                    0.0305                   308.7910905661391
5.0E-4                    0.0315                   311.22714454728657
0.0015                    -0.0315                  364.3166756036582
0.0015                    -0.0305                  363.72705173717
0.0015                    -0.0295                  362.1041545681542
0.0015                    -0.0285                  359.5324335571551
0.0015                    -0.0275                  356.6954236127445
0.0015                    -0.0265                  352.59634531372296
0.0015                    -0.0255                  348.08203994258827
0.0015                    -0.0245                  343.5556739743157
0.0015                    -0.0235                  338.5096144146946
0.0015                    -0.0225                  333.3581404604186
0.0015                    -0.0215                  328.81615301392907
0.0015                    -0.0205                  325.0665498096917
0.0015                    -0.0195                  321.4102090931867
0.0015                    -0.0185                  318.27499534545905
0.0015                    -0.0175                  316.36275763934725
0.0015                    -0.0165                  314.4616416194844
0.0015                    -0.0155                  312.7870968208863
0.0015                    -0.0145                  311.9641669003005
0.0015                    -0.0135                  311.04597347872493
0.0015                    -0.0125                  310.1514410005437
0.0015                    -0.0115                  309.7494593978381
0.0015                    -0.0105                  309.18781136661926
0.0015                    -0.0095                  308.6723831905486
0.0015                    -0.0085                  308.4801814736529
0.0015                    -0.0075                  308.0054110056525
0.0015                    -0.0065                  307.685308347674
0.0015                    -0.0055                  307.6676661214725
0.0015                    -0.0045                  307.21518308129254
0.0015                    -0.0035                  307.0696884683856
0.0015                    -0.0025                  307.17113420093074
0.0015                    -0.0015                  306.7721157382582
0.0015                    -5.0E-4                  306.6715594564156
0.0015                    5.0E-4                   306.6790741865882
0.0015                    0.0015                   306.04767828781837
0.0015                    0.0025                   305.59001961239983
0.0015                    0.0035                   305.06779651840185
0.0015                    0.0045                   303.7173873657974
0.0015                    0.0055                   302.17035360013676
0.0015                    0.0065                   300.6493805375671
0.0015                    0.0075                   298.9569039996112
0.0015                    0.0085                   296.3740154951074
0.0015                    0.0095                   294.64032772345047
0.0015                    0.0105                   294.44648191607666
0.0015                    0.0115                   294.2219110139524
0.0015                    0.0125                   294.2206310993226
0.0015                    0.0135                   293.7734151010783
0.0015                    0.0145                   293.3917393541132
0.0015                    0.0155                   293.23083860424515
0.0015                    0.0165                   293.2108713658356
0.0015                    0.0175                   293.3073319475514
0.0015                    0.0185                   293.5318864031479
0.0015                    0.0195                   293.66346369621556
0.0015                    0.0205                   293.63815422594246
0.0015                    0.0215                   293.6402252456361
0.0015                    0.0225                   293.6614916348898
0.0015                    0.0235                   294.4666798144661
0.0015                    0.0245                   295.402013710521
0.0015                    0.0255                   296.2517626221463
0.0015                    0.0265                   298.4588978656273
0.0015                    0.0275                   301.13204572397103
0.0015                    0.0285                   304.61439895532965
0.0015                    0.0295                   307.0296602304446
0.0015                    0.0305                   309.45661969653236
0.0015                    0.0315                   311.2958857856987
0.0025                    -0.0315                  362.8967925063102
0.0025                    -0.0305                  361.68568514662724
0.0025                    -0.0295                  359.8375296070514
0.0025                    -0.0285                  357.3885560909571
0.0025                    -0.0275                  354.0674964800352
0.0025                    -0.0265                  349.6792158084213
0.0025                    -0.0255                  345.31675386524284
0.0025                    -0.0245                  340.62217229723854
0.0025                    -0.0235                  335.5344337648387
0.0025                    -0.0225                  330.44669523243886
0.0025                    -0.0215                  326.28794150484975
0.0025                    -0.0205                  322.58909655753166
0.0025                    -0.0195                  318.89025161021345
0.0025                    -0.0185                  316.54903450011625
0.0025                    -0.0175                  314.63581773836324
0.0025                    -0.0165                  312.72260097661024
0.0025                    -0.0155                  311.75618539129846
0.0025                    -0.0145                  310.9300371308029
0.0025                    -0.0135                  310.1038888703074
0.0025                    -0.0125                  309.71543264581254
0.0025                    -0.0115                  309.31186602828745
0.0025                    -0.0105                  308.923498013271
0.0025                    -0.0095                  308.79296800918553
0.0025                    -0.0085                  308.6001454975327
0.0025                    -0.0075                  308.5147672997963
0.0025                    -0.0065                  308.5049679683842
0.0025                    -0.0055                  308.4870965241237
0.0025                    -0.0045                  308.5720788458934
0.0025                    -0.0035                  308.6733488680668
0.0025                    -0.0025                  308.77461889024016
0.0025                    -0.0015                  308.8666935165006
0.0025                    -5.0E-4                  308.8741941265997
0.0025                    5.0E-4                   308.8816947366989
0.0025                    0.0015                   308.6695155897554
0.0025                    0.0025                   308.2304647332692
0.0025                    0.0035                   307.791413876783
0.0025                    0.0045                   306.7431876197441
0.0025                    0.0055                   305.1874657261559
0.0025                    0.0065                   303.63174383256774
0.0025                    0.0075                   301.5477521697319
0.0025                    0.0085                   299.0310958276435
0.0025                    0.0095                   296.46569279952314
0.0025                    0.0105                   295.72578866751024
0.0025                    0.0115                   295.4947979910801
0.0025                    0.0125                   294.42918005761237
0.0025                    0.0135                   293.8914884079233
0.0025                    0.0145                   293.48489982423973
0.0025                    0.0155                   293.2939769741265
0.0025                    0.0165                   293.2628295231812
0.0025                    0.0175                   293.3720742766326
0.0025                    0.0185                   293.6208830432953
0.0025                    0.0195                   293.9119172925429
0.0025                    0.0205                   294.1582643566089
0.0025                    0.0215                   294.17724032746366
0.0025                    0.0225                   294.75433939676606
0.0025                    0.0235                   295.72758962816977
0.0025                    0.0245                   296.70083985957353
0.0025                    0.0255                   298.5678927653444
0.0025                    0.0265                   300.6482068998555
0.0025                    0.0275                   302.8132560990523
0.0025                    0.0285                   305.2773777178947
0.0025                    0.0295                   307.6641050625875
0.0025                    0.0305                   309.73026468489456
0.0025                    0.0315                   311.33835823349426
0.0035                    -0.0315                  360.1505020090425
0.0035                    -0.0305                  358.5679025601729
0.0035                    -0.0295                  356.9505390652326
0.0035                    -0.0285                  354.0954488354077
0.0035                    -0.0275                  349.52259505145037
0.0035                    -0.0265                  345.0164747873018
0.0035                    -0.0255                  340.56089263590155
0.0035                    -0.0245                  335.51188772329095
0.0035                    -0.0235                  330.4392885684246
0.0035                    -0.0225                  325.75237295208444
0.0035                    -0.0215                  322.7034443426734
0.0035                    -0.0205                  319.1607330047478
0.0035                    -0.0195                  316.2336769405279
0.0035                    -0.0185                  314.9985872653855
0.0035                    -0.0175                  313.15893400066597
0.0035                    -0.0165                  311.88366425560747
0.0035                    -0.0155                  311.46970445252384
0.0035                    -0.0145                  310.6435561920283
0.0035                    -0.0135                  310.20951295912414
0.0035                    -0.0125                  310.08703955151014
0.0035                    -0.0115                  309.68347293398506
0.0035                    -0.0105                  309.70062461199086
0.0035                    -0.0095                  309.8447638072864
0.0035                    -0.0085                  309.6519412956336
0.0035                    -0.0075                  310.02071228914286
0.0035                    -0.0065                  310.357640972
0.0035                    -0.0055                  310.3397695277395
0.0035                    -0.0045                  310.8213375043607
0.0035                    -0.0035                  311.1468632810608
0.0035                    -0.0025                  311.2481333032342
0.0035                    -0.0015                  311.4309595186734
0.0035                    -5.0E-4                  311.50358119385993
0.0035                    5.0E-4                   311.4642694988235
0.0035                    0.0015                   311.0939426151669
0.0035                    0.0025                   310.67130548290294
0.0035                    0.0035                   310.13113262079486
0.0035                    0.0045                   309.3299022016223
0.0035                    0.0055                   307.852903484726
0.0035                    0.0065                   306.4548823105279
0.0035                    0.0075                   305.1698562858273
0.0035                    0.0085                   302.65319994373897
0.0035                    0.0095                   299.90006491954966
0.0035                    0.0105                   298.0031045435134
0.0035                    0.0115                   297.22419098988064
0.0035                    0.0125                   294.7524214962101
0.0035                    0.0135                   294.0555169646439
0.0035                    0.0145                   293.6153288799328
0.0035                    0.0155                   293.3102321161898
0.0035                    0.0165                   293.2910988059715
0.0035                    0.0175                   293.51495711352936
0.0035                    0.0185                   293.8023389454819
0.0035                    0.0195                   294.6338383558923
0.0035                    0.0205                   295.6937871465651
0.0035                    0.0215                   295.7143475583522
0.0035                    0.0225                   297.48721979702
0.0035                    0.0235                   298.68162259958376
0.0035                    0.0245                   300.14315243111014
0.0035                    0.0255                   302.2318667779382
0.0035                    0.0265                   304.3121809124492
0.0035                    0.0275                   304.81081575239585
0.0035                    0.0285                   306.12047311016966
0.0035                    0.0295                   308.2233623578737
0.0035                    0.0305                   310.2036524482639
0.0035                    0.0315                   311.72745933317884
0.0045                    -0.0315                  357.4290816789945
0.0045                    -0.0305                  355.72482337858503
0.0045                    -0.0295                  354.007392523056
0.0045                    -0.0285                  349.55443307120714
0.0045                    -0.0275                  344.9810659473552
0.0045                    -0.0265                  340.40769882350315
0.0045                    -0.0255                  335.44357886773014
0.0045                    -0.0245                  330.39457395511954
0.0045                    -0.0235                  325.3441433720106
0.0045                    -0.0225                  321.9308022008732
0.0045                    -0.0215                  318.8818735914622
0.0045                    -0.0205                  315.7323694519639
0.0045                    -0.0195                  314.3480452058859
0.0045                    -0.0185                  313.1129555307435
0.0045                    -0.0175                  311.75163637366285
0.0045                    -0.0165                  311.3437846932352
0.0045                    -0.0155                  310.9359330128075
0.0045                    -0.0145                  310.4630771658489
0.0045                    -0.0135                  310.38443197027493
0.0045                    -0.0125                  310.3057867747009
0.0045                    -0.0115                  310.21719434643785
0.0045                    -0.0105                  310.4777512107108
0.0045                    -0.0095                  310.73830807498365
0.0045                    -0.0085                  310.97240175432296
0.0045                    -0.0075                  311.52665727848944
0.0045                    -0.0065                  312.080912802656
0.0045                    -0.0055                  312.46770287527704
0.0045                    -0.0045                  313.0209797808414
0.0045                    -0.0035                  313.57425668640576
0.0045                    -0.0025                  313.77115661116477
0.0045                    -0.0015                  313.9540992264135
0.0045                    -5.0E-4                  314.1329682611201
0.0045                    5.0E-4                   313.86393892496676
0.0045                    0.0015                   313.4936120413102
0.0045                    0.0025                   313.11214623253676
0.0045                    0.0035                   312.34807815676083
0.0045                    0.0045                   311.54684773758834
0.0045                    0.0055                   310.55040017266225
0.0045                    0.0065                   309.3204980605029
0.0045                    0.0075                   308.09059594834355
0.0045                    0.0085                   306.1597981147394
0.0045                    0.0095                   303.3344370395761
0.0045                    0.0105                   300.50907596441266
0.0045                    0.0115                   298.2081027347136
0.0045                    0.0125                   295.736333241043
0.0045                    0.0135                   294.2609969695575
0.0045                    0.0145                   293.8513944617809
0.0045                    0.0155                   293.41109644432527
0.0045                    0.0165                   293.41946330828654
0.0045                    0.0175                   293.7132565411916
0.0045                    0.0185                   294.0192793283279
0.0045                    0.0195                   295.43339633577807
0.0045                    0.0205                   296.84751334322823
0.0045                    0.0215                   298.25836916640685
0.0045                    0.0225                   300.0312414050745
0.0045                    0.0235                   301.71077245381696
0.0045                    0.0245                   303.8030215370327
0.0045                    0.0255                   305.7659702772225
0.0045                    0.0265                   306.0755936809472
0.0045                    0.0275                   306.26910647956527
0.0045                    0.0285                   307.67606081083534
0.0045                    0.0295                   309.2230725945093
0.0045                    0.0305                   310.63841785037096
0.0045                    0.0315                   312.12364512483066
0.0055                    -0.0315                  354.70766134894654
0.0055                    -0.0305                  352.60218808730167
0.0055                    -0.0295                  350.39447253556926
0.0055                    -0.0285                  345.1042219034014
0.0055                    -0.0275                  340.5186353736681
0.0055                    -0.0265                  335.8368351109558
0.0055                    -0.0255                  330.93146084888616
0.0055                    -0.0245                  325.8358620692436
0.0055                    -0.0235                  321.880377165097
0.0055                    -0.0225                  319.2792984429441
0.0055                    -0.0215                  316.2329267325356
0.0055                    -0.0205                  314.4993807672805
0.0055                    -0.0195                  313.4844916834379
0.0055                    -0.0185                  312.23937877096006
0.0055                    -0.0175                  311.69248274855704
0.0055                    -0.0165                  311.3505775270387
0.0055                    -0.0155                  310.93787902542323
0.0055                    -0.0145                  310.9379452648841
0.0055                    -0.0135                  310.89924639749114
0.0055                    -0.0125                  310.81810411865285
0.0055                    -0.0115                  311.26516558729344
0.0055                    -0.0105                  311.5461931146221
0.0055                    -0.0095                  311.8060504381505
0.0055                    -0.0085                  312.4877952148561
0.0055                    -0.0075                  313.04204860338984
0.0055                    -0.0065                  313.59114264904866
0.0055                    -0.0055                  314.0967948942896
0.0055                    -0.0045                  314.6500496436602
0.0055                    -0.0035                  315.1071787052287
0.0055                    -0.0025                  315.23350333698494
0.0055                    -0.0015                  315.4162572788736
0.0055                    -5.0E-4                  315.40301240945405
0.0055                    5.0E-4                   315.0137290400364
0.0055                    0.0015                   314.63045738005763
0.0055                    0.0025                   313.93541629879957
0.0055                    0.0035                   313.03171938276085
0.0055                    0.0045                   312.19689649835556
0.0055                    0.0055                   310.97977901832513
0.0055                    0.0065                   309.63622451087224
0.0055                    0.0075                   308.3015076133557
0.0055                    0.0085                   307.0800518841748
0.0055                    0.0095                   304.32824421528136
0.0055                    0.0105                   301.350677256615
0.0055                    0.0115                   298.45898448856485
0.0055                    0.0125                   296.02138366865745
0.0055                    0.0135                   294.2583126701134
0.0055                    0.0145                   293.74714460169537
0.0055                    0.0155                   293.4059247701151
0.0055                    0.0165                   293.39381552072336
0.0055                    0.0175                   293.6876087536283
0.0055                    0.0185                   294.6186317716976
0.0055                    0.0195                   296.00313689140677
0.0055                    0.0205                   297.54470073897966
0.0055                    0.0215                   299.6366334395404
0.0055                    0.0225                   301.40365006112285
0.0055                    0.0235                   302.4079283072902
0.0055                    0.0245                   303.7899465762931
0.0055                    0.0255                   305.46775919756743
0.0055                    0.0265                   306.787108971591
0.0055                    0.0275                   307.72739720673474
0.0055                    0.0285                   308.91931623573424
0.0055                    0.0295                   309.91942461451947
0.0055                    0.0305                   311.1579549971117
0.0055                    0.0315                   312.5233123031763
0.0065                    -0.0315                  351.439794506908
0.0065                    -0.0305                  349.04876281306116
0.0065                    -0.0295                  346.5772014177741
0.0065                    -0.0285                  341.2869507856063
0.0065                    -0.0275                  336.04453068598525
0.0065                    -0.0265                  331.21354633137935
0.0065                    -0.0255                  326.38256197677345
0.0065                    -0.0245                  321.3392374064289
0.0065                    -0.0235                  319.00267056142485
0.0065                    -0.0225                  316.7338412842677
0.0065                    -0.0215                  314.302605220754
0.0065                    -0.0205                  313.5565857351865
0.0065                    -0.0195                  312.8105662496191
0.0065                    -0.0185                  311.9002030192167
0.0065                    -0.0175                  311.706695369328
0.0065                    -0.0165                  311.4993623791767
0.0065                    -0.0155                  311.2860229734301
0.0065                    -0.0145                  311.42100345122157
0.0065                    -0.0135                  311.51306693735586
0.0065                    -0.0125                  311.7186676570348
0.0065                    -0.0115                  312.25606070551305
0.0065                    -0.0105                  312.70526869390403
0.0065                    -0.0095                  313.21907208830373
0.0065                    -0.0085                  313.9225273561117
0.0065                    -0.0075                  314.5604276988132
0.0065                    -0.0065                  315.0742313578667
0.0065                    -0.0055                  315.5702958115527
0.0065                    -0.0045                  316.09846829331093
0.0065                    -0.0035                  316.2821971281595
0.0065                    -0.0025                  316.38518959035895
0.0065                    -0.0015                  316.54299662830203
0.0065                    -5.0E-4                  316.1791792065364
0.0065                    5.0E-4                   315.78546614816287
0.0065                    0.0015                   315.3290301248064
0.0065                    0.0025                   314.3319072992246
0.0065                    0.0035                   313.3347844736428
0.0065                    0.0045                   312.31761347015436
0.0065                    0.0055                   310.95102913961284
0.0065                    0.0065                   309.589139572786
0.0065                    0.0075                   308.3221642757894
0.0065                    0.0085                   307.102982579926
0.0065                    0.0095                   305.1127868790273
0.0065                    0.0105                   301.8850585424999
0.0065                    0.0115                   298.6533920760725