% Model:              SIMBench260525.mph
% Version:            COMSOL 6.2.0.339
% Date:               May 27 2026, 17:49
% Dimension:          2
% Nodes:              4096
% Expressions:        1
% Description:        温度
% Length unit:        m
% x                       y                        T (K)
5.0E-4                    -0.0315                  327.3114400664662
5.0E-4                    -0.0305                  325.49178577937846
5.0E-4                    -0.0295                  323.66002790346556
5.0E-4                    -0.0285                  320.50047218647285
5.0E-4                    -0.0275                  317.3715489095358
5.0E-4                    -0.0265                  314.2426256325989
5.0E-4                    -0.0255                  311.6750934384532
5.0E-4                    -0.0245                  309.59497373784217
5.0E-4                    -0.0235                  307.51485403723115
5.0E-4                    -0.0225                  306.49323531797114
5.0E-4                    -0.0215                  305.2999829610447
5.0E-4                    -0.0205                  304.1067306041183
5.0E-4                    -0.0195                  303.58632000423347
5.0E-4                    -0.0185                  302.7521118747655
5.0E-4                    -0.0175                  301.9179037452975
5.0E-4                    -0.0165                  301.53864744209386
5.0E-4                    -0.0155                  300.6881798077207
5.0E-4                    -0.0145                  299.83771217334754
5.0E-4                    -0.0135                  299.08199645425304
5.0E-4                    -0.0125                  297.84495463871224
5.0E-4                    -0.0115                  296.6079128231713
5.0E-4                    -0.0105                  295.3078486969124
5.0E-4                    -0.0095                  294.77393335766067
5.0E-4                    -0.0085                  294.24001801840893
5.0E-4                    -0.0075                  293.49911896426073
5.0E-4                    -0.0065                  293.41346059177425
5.0E-4                    -0.0055                  293.3278022192878
5.0E-4                    -0.0045                  293.36591527598506
5.0E-4                    -0.0035                  293.43533264739074
5.0E-4                    -0.0025                  293.5047500187963
5.0E-4                    -0.0015                  293.28481750620824
5.0E-4                    -5.0E-4                  293.2037508711692
5.0E-4                    5.0E-4                   293.1994351065645
5.0E-4                    0.0015                   293.2717353606728
5.0E-4                    0.0025                   293.4863613717515
5.0E-4                    0.0035                   293.4078998900301
5.0E-4                    0.0045                   293.32943840830876
5.0E-4                    0.0055                   293.29482315117735
5.0E-4                    0.0065                   293.3621096729264
5.0E-4                    0.0075                   293.4293961946756
5.0E-4                    0.0085                   294.48684224245176
5.0E-4                    0.0095                   294.9704812230717
5.0E-4                    0.0105                   295.45412020369173
5.0E-4                    0.0115                   297.0483072240261
5.0E-4                    0.0125                   298.7345439473883
5.0E-4                    0.0135                   300.42078067075056
5.0E-4                    0.0145                   301.2928045838348
5.0E-4                    0.0155                   302.12419229081087
5.0E-4                    0.0165                   302.95557999778686
5.0E-4                    0.0175                   303.2940287204053
5.0E-4                    0.0185                   303.9734864065437
5.0E-4                    0.0195                   304.6529440926821
5.0E-4                    0.0205                   304.9498175041082
5.0E-4                    0.0215                   305.807859101892
5.0E-4                    0.0225                   306.66590069967583
5.0E-4                    0.0235                   307.2313167584831
5.0E-4                    0.0245                   308.50015529110203
5.0E-4                    0.0255                   309.7689938237209
5.0E-4                    0.0265                   311.0279067074729
5.0E-4                    0.0275                   313.2236007261366
5.0E-4                    0.0285                   315.41929474480037
5.0E-4                    0.0295                   317.735090461902
5.0E-4                    0.0305                   319.32680117834
5.0E-4                    0.0315                   320.9185118947781
0.0015                    -0.0315                  326.5507750488494
0.0015                    -0.0305                  325.0639524212943
0.0015                    -0.0295                  322.7511023930573
0.0015                    -0.0285                  319.05310910369485
0.0015                    -0.0275                  315.6215960367915
0.0015                    -0.0265                  312.7942112160946
0.0015                    -0.0255                  310.2158412715636
0.0015                    -0.0245                  307.9189994543543
0.0015                    -0.0235                  306.5797202762264
0.0015                    -0.0225                  305.8692627564448
0.0015                    -0.0215                  304.8541432965742
0.0015                    -0.0205                  304.1155307773296
0.0015                    -0.0195                  303.88521791446533
0.0015                    -0.0185                  303.2929114969199
0.0015                    -0.0175                  302.7978477154595
0.0015                    -0.0165                  302.6954540855145
0.0015                    -0.0155                  302.1551425873089
0.0015                    -0.0145                  301.43273889417895
0.0015                    -0.0135                  300.8554023667855
0.0015                    -0.0125                  299.8879954300254
0.0015                    -0.0115                  298.49441554585496
0.0015                    -0.0105                  296.93123374786785
0.0015                    -0.0095                  295.9878030512486
0.0015                    -0.0085                  295.2085200237027
0.0015                    -0.0075                  294.17822139283743
0.0015                    -0.0065                  293.76510588880416
0.0015                    -0.0055                  293.7585540462661
0.0015                    -0.0045                  293.8128487464893
0.0015                    -0.0035                  293.87944505889607
0.0015                    -0.0025                  293.6826989382054
0.0015                    -0.0015                  293.4209702544161
0.0015                    -5.0E-4                  293.2196475211319
0.0015                    5.0E-4                   293.21546660824856
0.0015                    0.0015                   293.3178603221621
0.0015                    0.0025                   293.62610357858296
0.0015                    0.0035                   293.85934464148477
0.0015                    0.0045                   293.78769294516354
0.0015                    0.0055                   293.741545318009
0.0015                    0.0065                   293.7554988700905
0.0015                    0.0075                   294.40624597789304
0.0015                    0.0085                   295.96284674756197
0.0015                    0.0095                   296.9278370134192
0.0015                    0.0105                   298.02035798507507
0.0015                    0.0115                   299.9282494910822
0.0015                    0.0125                   301.7103980744223
0.0015                    0.0135                   302.93470962625815
0.0015                    0.0145                   303.57623571627846
0.0015                    0.0155                   304.32646981367526
0.0015                    0.0165                   304.8278640701617
0.0015                    0.0175                   304.91522121634114
0.0015                    0.0185                   305.3418159815308
0.0015                    0.0195                   305.71891827768025
0.0015                    0.0205                   305.7197430101796
0.0015                    0.0215                   306.23243621580895
0.0015                    0.0225                   306.7869682347368
0.0015                    0.0235                   307.03337623311774
0.0015                    0.0245                   307.9286843922306
0.0015                    0.0255                   308.984647354663
0.0015                    0.0265                   309.902687767209
0.0015                    0.0275                   311.7054230434864
0.0015                    0.0285                   314.0840963833639
0.0015                    0.0295                   316.7531123769723
0.0015                    0.0305                   318.6528101947916
0.0015                    0.0315                   320.14890889815626
0.0025                    -0.0315                  325.79011003123264
0.0025                    -0.0305                  323.87982073591166
0.0025                    -0.0295                  321.25805449592957
0.0025                    -0.0285                  317.5869680230277
0.0025                    -0.0275                  314.12898701287935
0.0025                    -0.0265                  311.47417687736333
0.0025                    -0.0255                  308.8898904229604
0.0025                    -0.0245                  306.8743108565108
0.0025                    -0.0235                  306.1046610224302
0.0025                    -0.0225                  305.30839930507966
0.0025                    -0.0215                  304.65258436600084
0.0025                    -0.0205                  304.44472935198485
0.0025                    -0.0195                  304.23687433796886
0.0025                    -0.0185                  304.15622873029463
0.0025                    -0.0175                  304.079695666352
0.0025                    -0.0165                  304.00109961432116
0.0025                    -0.0155                  303.97532643268346
0.0025                    -0.0145                  303.42768054722626
0.0025                    -0.0135                  302.8572061417342
0.0025                    -0.0125                  302.26305070646913
0.0025                    -0.0115                  300.7157412481771
0.0025                    -0.0105                  299.1574104795174
0.0025                    -0.0095                  297.5063998573306
0.0025                    -0.0085                  296.5024735506769
0.0025                    -0.0075                  295.49854724402314
0.0025                    -0.0065                  294.47163143796627
0.0025                    -0.0055                  294.5249473218053
0.0025                    -0.0045                  294.5782632056444
0.0025                    -0.0035                  294.14087046291496
0.0025                    -0.0025                  293.8268815772026
0.0025                    -0.0015                  293.55973668050626
0.0025                    -5.0E-4                  293.32913888732566
0.0025                    5.0E-4                   293.2595044760427
0.0025                    0.0015                   293.36460940348024
0.0025                    0.0025                   293.702577164173
0.0025                    0.0035                   294.1256240907993
0.0025                    0.0045                   294.31640970882995
0.0025                    0.0055                   294.28686358144023
0.0025                    0.0065                   294.2573174540505
0.0025                    0.0075                   295.8563427362001
0.0025                    0.0085                   297.424867127566
0.0025                    0.0095                   298.99061961273503
0.0025                    0.0105                   300.86597700823074
0.0025                    0.0115                   302.773827609884
0.0025                    0.0125                   304.6292932498825
0.0025                    0.0135                   305.29768561941535
0.0025                    0.0145                   305.9384730338823
0.0025                    0.0155                   306.5654326617623
0.0025                    0.0165                   306.6698623772791
0.0025                    0.0175                   306.75801176414404
0.0025                    0.0185                   306.8094591496856
0.0025                    0.0195                   306.8079577120956
0.0025                    0.0205                   306.8243891723141
0.0025                    0.0215                   306.72400994437464
0.0025                    0.0225                   307.00530990375483
0.0025                    0.0235                   307.28897026268925
0.0025                    0.0245                   307.485456912728
0.0025                    0.0255                   308.2507389614464
0.0025                    0.0265                   309.0723671148555
0.0025                    0.0275                   310.18724536083624
0.0025                    0.0285                   312.8380878832073
0.0025                    0.0295                   315.4901878828296
0.0025                    0.0305                   317.7048234679791
0.0025                    0.0315                   319.37818885258343
0.0035                    -0.0315                  324.2661474214321
0.0035                    -0.0305                  321.9025995510511
0.0035                    -0.0295                  319.6583820218142
0.0035                    -0.0285                  316.0908051615436
0.0035                    -0.0275                  313.1389937796989
0.0035                    -0.0265                  310.2616499728314
0.0035                    -0.0255                  307.6773635184284
0.0035                    -0.0245                  307.35773677157556
0.0035                    -0.0235                  306.9214097027681
0.0035                    -0.0225                  306.12514798541747
0.0035                    -0.0215                  306.54256545537504
0.0035                    -0.0205                  306.89179591545314
0.0035                    -0.0195                  306.68394090143715
0.0035                    -0.0185                  307.3694268492061
0.0035                    -0.0175                  307.9566462464143
0.0035                    -0.0165                  307.8780501943836
0.0035                    -0.0155                  308.1492620238945
0.0035                    -0.0145                  308.17922529618005
0.0035                    -0.0135                  307.608750890688
0.0035                    -0.0125                  306.89858810533906
0.0035                    -0.0115                  305.83561382052187
0.0035                    -0.0105                  304.2772830518621
0.0035                    -0.0095                  302.1917808721151
0.0035                    -0.0085                  300.5133784611388
0.0035                    -0.0075                  299.509452154485
0.0035                    -0.0065                  297.81875160762195
0.0035                    -0.0055                  297.1393825082971
0.0035                    -0.0045                  296.8650079918798
0.0035                    -0.0035                  294.8663933038513
0.0035                    -0.0025                  294.3194922866496
0.0035                    -0.0015                  293.7436510775185
0.0035                    -5.0E-4                  293.3571562376401
0.0035                    5.0E-4                   293.30168266249075
0.0035                    0.0015                   293.4541680962652
0.0035                    0.0025                   293.764543683595
0.0035                    0.0035                   294.4097171729712
0.0035                    0.0045                   295.9401944698177
0.0035                    0.0055                   295.910648342428
0.0035                    0.0065                   297.0347706473731
0.0035                    0.0075                   299.06077324326975
0.0035                    0.0085                   300.6292976346357
0.0035                    0.0095                   302.15726556278616
0.0035                    0.0105                   303.77923121262927
0.0035                    0.0115                   305.6870818142826
0.0035                    0.0125                   307.0751879429204
0.0035                    0.0135                   308.05865008281467
0.0035                    0.0145                   308.6994374972816
0.0035                    0.0155                   309.2065362964951
0.0035                    0.0165                   309.5318629280999
0.0035                    0.0175                   309.62001231496487
0.0035                    0.0185                   309.3667718605461
0.0035                    0.0195                   309.1171972723564
0.0035                    0.0205                   309.13362873257495
0.0035                    0.0215                   308.5645957932755
0.0035                    0.0225                   308.25000700331145
0.0035                    0.0235                   308.5336673622459
0.0035                    0.0245                   308.25394483443336
0.0035                    0.0255                   308.6906723214117
0.0035                    0.0265                   309.4346629042587
0.0035                    0.0275                   309.95867335593744
0.0035                    0.0285                   311.59564130654394
0.0035                    0.0295                   314.18449527271343
0.0035                    0.0305                   316.31231857932823
0.0035                    0.0315                   318.2377031678184
0.0045                    -0.0315                  323.131271573871
0.0045                    -0.0305                  320.56010292460985
0.0045                    -0.0295                  318.02067802797296
0.0045                    -0.0285                  315.1033818023143
0.0045                    -0.0275                  312.1509993272809
0.0045                    -0.0265                  309.1986168522475
0.0045                    -0.0255                  308.0460493107105
0.0045                    -0.0245                  307.84116268664025
0.0045                    -0.0235                  307.63627606257
0.0045                    -0.0225                  307.6096248057944
0.0045                    -0.0215                  308.38380629447295
0.0045                    -0.0205                  309.1579877831516
0.0045                    -0.0195                  309.57572287405674
0.0045                    -0.0185                  310.58262496811744
0.0045                    -0.0175                  311.5895270621782
0.0045                    -0.0165                  311.94098529724056
0.0045                    -0.0155                  312.32319761510564
0.0045                    -0.0145                  312.7054099329708
0.0045                    -0.0135                  312.282408693148
0.0045                    -0.0125                  311.534125504209
0.0045                    -0.0115                  310.7858423152701
0.0045                    -0.0105                  309.09195106147155
0.0045                    -0.0095                  306.8858624431635
0.0045                    -0.0085                  304.6797738248555
0.0045                    -0.0075                  303.09633881521887
0.0045                    -0.0065                  301.34269834358486
0.0045                    -0.0055                  299.7538176947888
0.0045                    -0.0045                  298.157762806092
0.0045                    -0.0035                  296.1591481180635
0.0045                    -0.0025                  294.86614409588884
0.0045                    -0.0015                  294.20239373038976
0.0045                    -5.0E-4                  293.5386433648907
0.0045                    5.0E-4                   293.4019514042368
0.0045                    0.0015                   293.61014492210563
0.0045                    0.0025                   293.82216383115167
0.0045                    0.0035                   295.0538192142387
0.0045                    0.0045                   296.62168971693484
0.0045                    0.0055                   297.68061642684705
0.0045                    0.0065                   299.8519983882102
0.0045                    0.0075                   302.0233803495733
0.0045                    0.0085                   303.81825983770517
0.0045                    0.0095                   305.3239115128374
0.0045                    0.0105                   306.8295631879697
0.0045                    0.0115                   308.3713092226147
0.0045                    0.0125                   309.52108263595835
0.0045                    0.0135                   310.67085604930196
0.0045                    0.0145                   311.39786163212216
0.0045                    0.0155                   311.8476399312277
0.0045                    0.0165                   312.2974182303333
0.0045                    0.0175                   312.3205376447084
0.0045                    0.0185                   311.9240845714066
0.0045                    0.0195                   311.5276314981047
0.0045                    0.0205                   311.1437574816905
0.0045                    0.0215                   310.4051816421763
0.0045                    0.0225                   309.6666058026621
0.0045                    0.0235                   309.44338479337574
0.0045                    0.0245                   309.1267033334997
0.0045                    0.0255                   309.0460275686021
0.0045                    0.0265                   309.43896164739766
0.0045                    0.0275                   310.0151594703337
0.0045                    0.0285                   311.65212742094025
0.0045                    0.0295                   313.2890953715468
0.0045                    0.0305                   315.2421169003261
0.0045                    0.0315                   317.4262137508748
0.0055                    -0.0315                  321.99639572630997
0.0055                    -0.0305                  319.6785799099554
0.0055                    -0.0295                  317.38145071784504
0.0055                    -0.0285                  314.1705784037295
0.0055                    -0.0275                  311.1847699334683
0.0055                    -0.0265                  309.0197193598652
0.0055                    -0.0255                  308.71523435797116
0.0055                    -0.0245                  308.48586490729156
0.0055                    -0.0235                  308.3384793506949
0.0055                    -0.0225                  309.4163054792023
0.0055                    -0.0215                  310.19099066036597
0.0055                    -0.0205                  310.96567584152956
0.0055                    -0.0195                  312.05860428178363
0.0055                    -0.0185                  313.0413756895455
0.0055                    -0.0175                  313.999939231911
0.0055                    -0.0165                  314.35886461329494
0.0055                    -0.0155                  314.71026235023044
0.0055                    -0.0145                  314.9657801103396
0.0055                    -0.0135                  314.2464599518902
0.0055                    -0.0125                  313.4932453357582
0.0055                    -0.0115                  312.6678054724056
0.0055                    -0.0105                  311.14911504216957
0.0055                    -0.0095                  308.9382447231533
0.0055                    -0.0085                  306.9657508096975
0.0055                    -0.0075                  305.66835438481
0.0055                    -0.0065                  303.91467738595304
0.0055                    -0.0055                  301.801797608026
0.0055                    -0.0045                  299.54113719628043
0.0055                    -0.0035                  297.54048547694674
0.0055                    -0.0025                  295.0911659470081
0.0055                    -0.0015                  294.2688010221804
0.0055                    -5.0E-4                  293.61311636269795
0.0055                    5.0E-4                   293.34698353916144
0.0055                    0.0015                   293.58020239113864
0.0055                    0.0025                   294.0163535465344
0.0055                    0.0035                   295.2469025157011
0.0055                    0.0045                   296.8096201567481
0.0055                    0.0055                   298.76242186835725
0.0055                    0.0065                   300.9235394294743
0.0055                    0.0075                   303.0829787443683
0.0055                    0.0085                   304.42050058134026
0.0055                    0.0095                   305.92124970684876
0.0055                    0.0105                   307.4301288098574
0.0055                    0.0115                   309.19782223612117
0.0055                    0.0125                   310.36195738913784
0.0055                    0.0135                   311.5260925421545
0.0055                    0.0145                   312.9509812523093
0.0055                    0.0155                   313.41007352212665
0.0055                    0.0165                   313.869165791944
0.0055                    0.0175                   314.28404924110777
0.0055                    0.0185                   313.8790386941813
0.0055                    0.0195                   313.4740281472549
0.0055                    0.0205                   312.9471323296783
0.0055                    0.0215                   312.2073724273218
0.0055                    0.0225                   311.40554466065754
0.0055                    0.0235                   310.37999124203725
0.0055                    0.0245                   310.069181286573
0.0055                    0.0255                   309.8204715050518
0.0055                    0.0265                   309.6276632861849
0.0055                    0.0275                   310.07164558473
0.0055                    0.0285                   311.546341203138
0.0055                    0.0295                   312.94055650420404
0.0055                    0.0305                   314.72193906922774
0.0055                    0.0315                   316.6147243339312
0.0065                    -0.0315                  321.38528256218456
0.0065                    -0.0305                  319.03935259982745
0.0065                    -0.0295                  316.6879495128934
0.0065                    -0.0285                  313.45390185181344
0.0065                    -0.0275                  310.21985419073343
0.0065                    -0.0265                  309.7359369446568
0.0065                    -0.0255                  309.4217202641373
0.0065                    -0.0245                  309.16064164581576
0.0065                    -0.0235                  309.8790240722875
0.0065                    -0.0225                  311.03510241128004
0.0065                    -0.0215                  311.9800868127421
0.0065                    -0.0205                  312.9605577520111
0.0065                    -0.0195                  314.0915979526368
0.0065                    -0.0185                  315.1350037995381
0.0065                    -0.0175                  315.7005198446037
0.0065                    -0.0165                  316.06080747916417
0.0065                    -0.0155                  316.416410761321
0.0065                    -0.0145                  315.9779705651784
0.0065                    -0.0135                  315.26483885968366
0.0065                    -0.0125                  314.5298871426488
0.0065                    -0.0115                  313.3218844842151
0.0065                    -0.0105                  311.9795900147667
0.0065                    -0.0095                  310.09951304710614
0.0065                    -0.0085                  308.85196751143525
0.0065                    -0.0075                  307.76347183753745
0.0065                    -0.0065                  306.14195222557464
0.0065                    -0.0055                  303.5368290749889
0.0065                    -0.0045                  300.9574116425303
0.0065                    -0.0035                  298.75045657659007
0.0065                    -0.0025                  296.1602941924855
0.0065                    -0.0015                  294.2597825847537
0.0065                    -5.0E-4                  293.8155461828135
0.0065                    5.0E-4                   293.4835396396303
0.0065                    0.0015                   293.5049673372044
0.0065                    0.0025                   294.364371376215
0.0065                    0.0035                   295.2551853505681
0.0065                    0.0045                   296.94175307417066
0.0065                    0.0055                   299.1104084414468
0.0065                    0.0065                   301.27690167737205
0.0065                    0.0075                   302.99782951359145
0.0065                    0.0085                   304.1892854718602
0.0065                    0.0095                   305.49404737806213
0.0065                    0.0105                   307.17016451173714
0.0065                    0.0115                   308.9838360051341