% Model:              SIMBench260525.mph
% Version:            COMSOL 6.2.0.339
% Date:               May 27 2026, 17:27
% Dimension:          2
% Nodes:              4096
% Expressions:        1
% Description:        温度
% Length unit:        m
% x                       y                        T (K)
5.0E-4                    -0.0315                  389.777621516377
5.0E-4                    -0.0305                  388.01850387179957
5.0E-4                    -0.0295                  386.2493885223585
5.0E-4                    -0.0285                  382.6873884827329
5.0E-4                    -0.0275                  378.7641263546367
5.0E-4                    -0.0265                  374.79709695566186
5.0E-4                    -0.0255                  370.56653835530363
5.0E-4                    -0.0245                  366.73883214003143
5.0E-4                    -0.0235                  363.0661793563359
5.0E-4                    -0.0225                  360.33285241080574
5.0E-4                    -0.0215                  357.8179829145786
5.0E-4                    -0.0205                  355.59393651484794
5.0E-4                    -0.0195                  354.06479999590715
5.0E-4                    -0.0185                  352.5619982075468
5.0E-4                    -0.0175                  351.31108605027134
5.0E-4                    -0.0165                  350.2997068127668
5.0E-4                    -0.0155                  349.2703055715758
5.0E-4                    -0.0145                  348.45503824267234
5.0E-4                    -0.0135                  347.6308746050746
5.0E-4                    -0.0125                  346.79701912851885
5.0E-4                    -0.0115                  346.1513029339808
5.0E-4                    -0.0105                  345.37129850798505
5.0E-4                    -0.0095                  344.59129408198925
5.0E-4                    -0.0085                  343.9869373374121
5.0E-4                    -0.0075                  343.1776631832938
5.0E-4                    -0.0065                  342.36838902917543
5.0E-4                    -0.0055                  341.7454709617938
5.0E-4                    -0.0045                  340.83965939965947
5.0E-4                    -0.0035                  339.95954074030954
5.0E-4                    -0.0025                  339.24869008138546
5.0E-4                    -0.0015                  338.1841575992671
5.0E-4                    -5.0E-4                  337.2244268098068
5.0E-4                    5.0E-4                   336.21790078793305
5.0E-4                    0.0015                   334.81465972138494
5.0E-4                    0.0025                   333.5954727129438
5.0E-4                    0.0035                   331.34726072543333
5.0E-4                    0.0045                   328.4735594927887
5.0E-4                    0.0055                   325.81426914428295
5.0E-4                    0.0065                   317.6685676051086
5.0E-4                    0.0075                   308.3062483507247
5.0E-4                    0.0085                   298.9297168211816
5.0E-4                    0.0095                   297.37391745068396
5.0E-4                    0.0105                   296.22606394385343
5.0E-4                    0.0115                   294.5484524642244
5.0E-4                    0.0125                   294.49397108997994
5.0E-4                    0.0135                   294.4394897157355
5.0E-4                    0.0145                   293.53477739140584
5.0E-4                    0.0155                   293.29498043649664
5.0E-4                    0.0165                   293.2200072490191
5.0E-4                    0.0175                   293.30415909246324
5.0E-4                    0.0185                   293.6214859586172
5.0E-4                    0.0195                   293.58885527194343
5.0E-4                    0.0205                   293.55622458526966
5.0E-4                    0.0215                   294.09192882019374
5.0E-4                    0.0225                   294.6233693930956
5.0E-4                    0.0235                   296.02678337745476
5.0E-4                    0.0245                   301.13497156666176
5.0E-4                    0.0255                   306.44052272286956
5.0E-4                    0.0265                   311.0190054378532
5.0E-4                    0.0275                   316.11561492484225
5.0E-4                    0.0285                   321.4859236184442
5.0E-4                    0.0295                   325.4394143850006
5.0E-4                    0.0305                   327.6103895551332
5.0E-4                    0.0315                   329.78136472526586
0.0015                    -0.0315                  388.9944886376463
0.0015                    -0.0305                  387.7153230426779
0.0015                    -0.0295                  385.2758135837797
0.0015                    -0.0285                  381.467762629009
0.0015                    -0.0275                  377.59785273305573
0.0015                    -0.0265                  373.2355564290756
0.0015                    -0.0255                  368.6968295744829
0.0015                    -0.0245                  364.72709716293315
0.0015                    -0.0235                  361.5648614005013
0.0015                    -0.0225                  358.5383958176719
0.0015                    -0.0215                  356.00764908178866
0.0015                    -0.0205                  354.36524887505084
0.0015                    -0.0195                  352.7834428949491
0.0015                    -0.0185                  351.31641555228344
0.0015                    -0.0175                  350.389529321971
0.0015                    -0.0165                  349.4398228445589
0.0015                    -0.0155                  348.4794634243444
0.0015                    -0.0145                  347.8323021270776
0.0015                    -0.0135                  347.12086925704017
0.0015                    -0.0125                  346.3759847708734
0.0015                    -0.0115                  345.84474878201246
0.0015                    -0.0105                  345.19718343606615
0.0015                    -0.0095                  344.5407227256943
0.0015                    -0.0085                  344.0594237783819
0.0015                    -0.0075                  343.3841132023345
0.0015                    -0.0065                  342.76701224807425
0.0015                    -0.0055                  342.3161014785219
0.0015                    -0.0045                  341.53949335219335
0.0015                    -0.0035                  340.9511210730766
0.0015                    -0.0025                  340.526030660271
0.0015                    -0.0015                  339.56338054376624
0.0015                    -5.0E-4                  338.96026078401275
0.0015                    5.0E-4                   338.4837588794577
0.0015                    0.0015                   337.1122389944412
0.0015                    0.0025                   336.26116010221386
0.0015                    0.0035                   335.26392660497146
0.0015                    0.0045                   332.417913128935
0.0015                    0.0055                   330.03664781293725
0.0015                    0.0065                   326.0694451887784
0.0015                    0.0075                   316.701540718293
0.0015                    0.0085                   307.3145203909918
0.0015                    0.0095                   300.8232458829247
0.0015                    0.0105                   299.08772252445465
0.0015                    0.0115                   296.68737026571154
0.0015                    0.0125                   296.06375447718426
0.0015                    0.0135                   294.83988882790254
0.0015                    0.0145                   293.8103558400236
0.0015                    0.0155                   293.3496175041953
0.0015                    0.0165                   293.26040206171433
0.0015                    0.0175                   293.3842593511395
0.0015                    0.0185                   293.87400564519606
0.0015                    0.0195                   294.2123826601763
0.0015                    0.0205                   294.45277910980303
0.0015                    0.0215                   295.05013477506515
0.0015                    0.0225                   295.59386686111816
0.0015                    0.0235                   299.5857318245816
0.0015                    0.0245                   304.4095120402585
0.0015                    0.0255                   309.50338677296446
0.0015                    0.0265                   313.1676638456965
0.0015                    0.0275                   317.3756685952859
0.0015                    0.0285                   322.3954258322937
0.0015                    0.0295                   325.41448787064473
0.0015                    0.0305                   327.9564074855675
0.0015                    0.0315                   329.37890304343597
0.0025                    -0.0315                  388.2113557589157
0.0025                    -0.0305                  386.49714047787484
0.0025                    -0.0295                  383.86993200606344
0.0025                    -0.0285                  380.08591062774497
0.0025                    -0.0275                  375.76094396040276
0.0025                    -0.0265                  371.2219312281844
0.0025                    -0.0255                  366.76159286740636
0.0025                    -0.0245                  362.9559055800222
0.0025                    -0.0235                  359.9434345297697
0.0025                    -0.0225                  356.9309634795173
0.0025                    -0.0215                  354.7825878035371
0.0025                    -0.0205                  353.19098608866454
0.0025                    -0.0195                  351.59938437379196
0.0025                    -0.0185                  350.53836451650443
0.0025                    -0.0175                  349.60840156622936
0.0025                    -0.0165                  348.6784386159543
0.0025                    -0.0155                  348.0580022202744
0.0025                    -0.0145                  347.40569762563405
0.0025                    -0.0135                  346.7533930309937
0.0025                    -0.0125                  346.2929207765194
0.0025                    -0.0115                  345.75865505159175
0.0025                    -0.0105                  345.2352963130019
0.0025                    -0.0095                  344.81125614248623
0.0025                    -0.0085                  344.3288097594572
0.0025                    -0.0075                  343.899007660493
0.0025                    -0.0065                  343.4525095840231
0.0025                    -0.0055                  343.0012859758899
0.0025                    -0.0045                  342.59281065232676
0.0025                    -0.0035                  342.16743672271
0.0025                    -0.0025                  341.7420627930933
0.0025                    -0.0015                  341.30676882832694
0.0025                    -5.0E-4                  340.83036048905467
0.0025                    5.0E-4                   340.35395214978234
0.0025                    0.0015                   339.69837962364363
0.0025                    0.0025                   338.9006185179435
0.0025                    0.0035                   338.1028574122433
0.0025                    0.0045                   336.39312016665804
0.0025                    0.0055                   333.98487643887273
0.0025                    0.0065                   331.5766327110874
0.0025                    0.0075                   324.87643540767914
0.0025                    0.0085                   315.445627046864
0.0025                    0.0095                   306.2561956424165
0.0025                    0.0105                   302.76451731836835
0.0025                    0.0115                   300.34938205477886
0.0025                    0.0125                   296.6570067528005
0.0025                    0.0135                   295.17965157492006
0.0025                    0.0145                   294.0859342886412
0.0025                    0.0155                   293.5333816001612
0.0025                    0.0165                   293.3360218082071
0.0025                    0.0175                   293.46435960981574
0.0025                    0.0185                   294.0233862329403
0.0025                    0.0195                   294.66878950193046
0.0025                    0.0205                   295.573884496359
0.0025                    0.0215                   296.1890212774139
0.0025                    0.0225                   298.35576543995893
0.0025                    0.0235                   303.1100821101054
0.0025                    0.0245                   307.8643987802518
0.0025                    0.0255                   311.50097018910526
0.0025                    0.0265                   315.2786793907686
0.0025                    0.0275                   318.98059932627194
0.0025                    0.0285                   322.2506189474817
0.0025                    0.0295                   325.1045550201325
0.0025                    0.0305                   327.4634683016029
0.0025                    0.0315                   328.94349556213615
0.0035                    -0.0315                  386.58284518471606
0.0035                    -0.0305                  384.52544724668655
0.0035                    -0.0295                  382.34260499956866
0.0035                    -0.0285                  378.3066739481235
0.0035                    -0.0275                  373.2052333010367
0.0035                    -0.0265                  368.3071418521146
0.0035                    -0.0255                  364.02881714943703
0.0035                    -0.0245                  360.91040230554006
0.0035                    -0.0235                  357.85652218745315
0.0035                    -0.0225                  355.1722226266169
0.0035                    -0.0215                  353.8290156385122
0.0035                    -0.0205                  352.2970873969504
0.0035                    -0.0195                  351.0361936145079
0.0035                    -0.0185                  350.5002995289084
0.0035                    -0.0175                  349.6130849094657
0.0035                    -0.0165                  349.0046068373752
0.0035                    -0.0155                  348.82623119672314
0.0035                    -0.0145                  348.1739266020828
0.0035                    -0.0135                  347.8495953157488
0.0035                    -0.0125                  347.75409663350547
0.0035                    -0.0115                  347.2198309085779
0.0035                    -0.0105                  346.9876926586021
0.0035                    -0.0095                  346.8211193436784
0.0035                    -0.0085                  346.3386729606494
0.0035                    -0.0075                  346.13143309667703
0.0035                    -0.0065                  345.88776050399645
0.0035                    -0.0055                  345.4365368958632
0.0035                    -0.0045                  345.2071991029346
0.0035                    -0.0035                  344.8947772262016
0.0035                    -0.0025                  344.4694032965848
0.0035                    -0.0015                  344.057088789134
0.0035                    -5.0E-4                  343.60446727836086
0.0035                    5.0E-4                   343.0775814252666
0.0035                    0.0015                   342.19603166583204
0.0035                    0.0025                   341.37823397423796
0.0035                    0.0035                   340.4009237265476
0.0035                    0.0045                   338.97852746847593
0.0035                    0.0055                   336.6574303986379
0.0035                    0.0065                   334.5338182944692
0.0035                    0.0075                   332.3695364144052
0.0035                    0.0085                   322.93872805359
0.0035                    0.0095                   314.6788814376176
0.0035                    0.0105                   308.7394573463761
0.0035                    0.0115                   305.130986608292
0.0035                    0.0125                   297.81179377810616
0.0035                    0.0135                   295.849042504925
0.0035                    0.0145                   294.51156103131876
0.0035                    0.0155                   293.57376621310726
0.0035                    0.0165                   293.40333923420116
0.0035                    0.0175                   293.6618014583039
0.0035                    0.0185                   294.15293751401657
0.0035                    0.0195                   295.70637962205944
0.0035                    0.0205                   297.763030239849
0.0035                    0.0215                   298.38090028725225
0.0035                    0.0225                   302.02162517786337
0.0035                    0.0235                   306.4679542200714
0.0035                    0.0245                   309.9232431490059
0.0035                    0.0255                   312.2930066674039
0.0035                    0.0265                   316.07071586906727
0.0035                    0.0275                   318.065192442514
0.0035                    0.0285                   321.27372194328984
0.0035                    0.0295                   324.35951160306433
0.0035                    0.0305                   326.5858245870047
0.0035                    0.0315                   328.0168511984564
0.0045                    -0.0315                  385.17367411343844
0.0045                    -0.0305                  382.9436164459963
0.0045                    -0.0295                  380.7120170490236
0.0045                    -0.0285                  375.7732174246325
0.0045                    -0.0275                  370.6688367563196
0.0045                    -0.0265                  365.5644560880067
0.0045                    -0.0255                  362.00254005382465
0.0045                    -0.0245                  358.88412520992756
0.0045                    -0.0235                  355.7696098451366
0.0045                    -0.0225                  354.1280421387394
0.0045                    -0.0215                  352.78483515063465
0.0045                    -0.0205                  351.4031887052362
0.0045                    -0.0195                  350.8033483028628
0.0045                    -0.0185                  350.2674542172633
0.0045                    -0.0175                  349.6528339560445
0.0045                    -0.0165                  349.481481355774
0.0045                    -0.0155                  349.31012875550346
0.0045                    -0.0145                  349.03082008297383
0.0045                    -0.0135                  349.00375881836
0.0045                    -0.0125                  348.9766975537462
0.0045                    -0.0115                  348.7974504656751
0.0045                    -0.0105                  348.7400890042022
0.0045                    -0.0095                  348.6827275427293
0.0045                    -0.0085                  348.4802713606269
0.0045                    -0.0075                  348.36385853286106
0.0045                    -0.0065                  348.2474457050952
0.0045                    -0.0055                  347.994176662998
0.0045                    -0.0045                  347.79654337546003
0.0045                    -0.0035                  347.5989100879221
0.0045                    -0.0025                  347.2046736220386
0.0045                    -0.0015                  346.7923733007874
0.0045                    -5.0E-4                  346.3785740676671
0.0045                    5.0E-4                   345.60543651135595
0.0045                    0.0015                   344.7238867519213
0.0045                    0.0025                   343.85584943053243
0.0045                    0.0035                   342.4964149454551
0.0045                    0.0045                   341.0740186873834
0.0045                    0.0055                   339.4027496209674
0.0045                    0.0065                   337.5636946897277
0.0045                    0.0075                   335.724639758488
0.0045                    0.0085                   331.0037750886281
0.0045                    0.0095                   323.1015672328186
0.0045                    0.0105                   315.19935937700916
0.0045                    0.0115                   308.27963905961946
0.0045                    0.0125                   300.9604462294336
0.0045                    0.0135                   296.587427973333
0.0045                    0.0145                   295.29592077269314
0.0045                    0.0155                   293.9138923746532
0.0045                    0.0165                   293.58160650172994
0.0045                    0.0175                   293.92920874582506
0.0045                    0.0185                   294.3292850522701
0.0045                    0.0195                   296.87637920066527
0.0045                    0.0205                   299.4234733490605
0.0045                    0.0215                   302.3097737948834
0.0045                    0.0225                   305.9504986854946
0.0045                    0.0235                   309.62598403763434
0.0045                    0.0245                   311.40329624043477
0.0045                    0.0255                   313.06956163148243
0.0045                    0.0265                   314.7200026546547
0.0045                    0.0275                   316.3704754964
0.0045                    0.0285                   319.7148244985262
0.0045                    0.0295                   323.25468352180036
0.0045                    0.0305                   325.44967022609904
0.0045                    0.0315                   326.62247233477086
0.0055                    -0.0315                  383.76450304216087
0.0055                    -0.0305                  381.4874867590032
0.0055                    -0.0295                  379.14548568026487
0.0055                    -0.0285                  373.69572429147235
0.0055                    -0.0275                  368.5854565478422
0.0055                    -0.0265                  364.0780088197822
0.0055                    -0.0255                  360.53925854943896
0.0055                    -0.0245                  357.37749881796407
0.0055                    -0.0235                  355.00766281330993
0.0055                    -0.0225                  353.7480723646428
0.0055                    -0.0215                  352.40631684873694
0.0055                    -0.0205                  351.69958687527856
0.0055                    -0.0195                  351.3013711749978
0.0055                    -0.0185                  350.75830861130675
0.0055                    -0.0175                  350.7248608179656
0.0055                    -0.0165                  350.6770366844319
0.0055                    -0.0155                  350.49931326602126
0.0055                    -0.0145                  350.6683671420152
0.0055                    -0.0135                  350.6988813242567
0.0055                    -0.0125                  350.66784258565133
0.0055                    -0.0115                  350.5563395319892
0.0055                    -0.0105                  350.49380611789263
0.0055                    -0.0095                  350.43644148931287
0.0055                    -0.0085                  350.001548932951
0.0055                    -0.0075                  349.8852464590357
0.0055                    -0.0065                  349.72295780233327
0.0055                    -0.0055                  349.1656638420685
0.0055                    -0.0045                  348.9679412428926
0.0055                    -0.0035                  348.642218170177
0.0055                    -0.0025                  347.95988911768256
0.0055                    -0.0015                  347.54719361763307
0.0055                    -5.0E-4                  346.9316624648861
0.0055                    5.0E-4                   345.9679035015356
0.0055                    0.0015                   345.0631005732723
0.0055                    0.0025                   343.9042216505919
0.0055                    0.0035                   342.4610021600687
0.0055                    0.0045                   340.9886052676597
0.0055                    0.0055                   339.2611503271355
0.0055                    0.0065                   337.32973039605633
0.0055                    0.0075                   335.3634774724386
0.0055                    0.0085                   333.18691633173853
0.0055                    0.0095                   325.5323637311663
0.0055                    0.0105                   317.53278099800826
0.0055                    0.0115                   309.7240172111475
0.0055                    0.0125                   302.4829302760753
0.0055                    0.0135                   296.6966434450356
0.0055                    0.0145                   295.07668873078444
0.0055                    0.0155                   293.9130908738763
0.0055                    0.0165                   293.50329797442583
0.0055                    0.0175                   293.85090021852085
0.0055                    0.0185                   294.97946897550634
0.0055                    0.0195                   297.21057464089427
0.0055                    0.0205                   299.9083569366647
0.0055                    0.0215                   303.33791136413623
0.0055                    0.0225                   306.96406581335896
0.0055                    0.0235                   308.5463091444762
0.0055                    0.0245                   309.7289205128535
0.0055                    0.0255                   311.3047089773616
0.0055                    0.0265                   312.9973291157612
0.0055                    0.0275                   314.67575855028593
0.0055                    0.0285                   317.8067345376402
0.0055                    0.0295                   320.73514674338634
0.0055                    0.0305                   323.11440255536775
0.0055                    0.0315                   325.2015384505029
0.0065                    -0.0315                  382.37037260379583
0.0065                    -0.0305                  379.98093696503935
0.0065                    -0.0295                  377.37293091987704
0.0065                    -0.0285                  371.9231695310845
0.0065                    -0.0275                  366.5663432532036
0.0065                    -0.0265                  362.88016566035265
0.0065                    -0.0255                  359.19398806750166
0.0065                    -0.0245                  355.9286303215142
0.0065                    -0.0235                  354.68329569375635
0.0065                    -0.0225                  353.48501161798976
0.0065                    -0.0215                  352.3965198937745
0.0065                    -0.0205                  352.1674653016529
0.0065                    -0.0195                  351.93841070953124
0.0065                    -0.0185                  351.6356710782296
0.0065                    -0.0175                  351.86015597906464
0.0065                    -0.0165                  352.0592635727239
0.0065                    -0.0155                  352.0490219631546
0.0065                    -0.0145                  352.3314264405042
0.0065                    -0.0135                  352.5515818699644
0.0065                    -0.0125                  352.4768651027608
0.0065                    -0.0115                  352.3516050884761
0.0065                    -0.0105                  352.2479341687414
0.0065                    -0.0095                  351.95743293044785
0.0065                    -0.0085                  351.4930483289248
0.0065                    -0.0075                  351.18183488323626
0.0065                    -0.0065                  350.7077758926819
0.0065                    -0.0055                  350.0775066119634
0.0065                    -0.0045                  349.69083961148357
0.0065                    -0.0035                  349.0024061437722
0.0065                    -0.0025                  348.20835776180036
0.0065                    -0.0015                  347.6767052153644
0.0065                    -5.0E-4                  346.6990627534865
0.0065                    5.0E-4                   345.6917891329833
0.0065                    0.0015                   344.7096576967803
0.0065                    0.0025                   343.3063440001745
0.0065                    0.0035                   341.9030303035687
0.0065                    0.0045                   340.3103276690341
0.0065                    0.0055                   338.4933251378149
0.0065                    0.0065                   336.64399703912494
0.0065                    0.0075                   334.5450647291915
0.0065                    0.0085                   332.36850358849154
0.0065                    0.0095                   327.4420941621365
0.0065                    0.0105                   319.21779569255784
0.0065                    0.0115                   310.9859661235527