% Model:              SIMBench260525.mph
% Version:            COMSOL 6.2.0.339
% Date:               May 27 2026, 17:52
% Dimension:          2
% Nodes:              4096
% Expressions:        1
% Description:        温度
% Length unit:        m
% x                       y                        T (K)
5.0E-4                    -0.0315                  380.8209496209904
5.0E-4                    -0.0305                  379.251223630453
5.0E-4                    -0.0295                  377.6726302601604
5.0E-4                    -0.0285                  374.32982243289257
5.0E-4                    -0.0275                  370.64960809065207
5.0E-4                    -0.0265                  366.7960166290997
5.0E-4                    -0.0255                  362.52136633492285
5.0E-4                    -0.0245                  358.5324254374854
5.0E-4                    -0.0235                  354.713531844847
5.0E-4                    -0.0225                  351.6237255154828
5.0E-4                    -0.0215                  348.6818289155069
5.0E-4                    -0.0205                  346.1847784950072
5.0E-4                    -0.0195                  344.2895681571522
5.0E-4                    -0.0185                  342.4128277774395
5.0E-4                    -0.0175                  340.9201239122748
5.0E-4                    -0.0165                  339.63755134770196
5.0E-4                    -0.0155                  338.3549787831292
5.0E-4                    -0.0145                  337.3428758681816
5.0E-4                    -0.0135                  336.3584136663524
5.0E-4                    -0.0125                  335.38454240478404
5.0E-4                    -0.0115                  334.61270431517727
5.0E-4                    -0.0105                  333.792593376264
5.0E-4                    -0.0095                  333.0351198657364
5.0E-4                    -0.0085                  332.38098682406246
5.0E-4                    -0.0075                  331.64929866467196
5.0E-4                    -0.0065                  331.05420005198306
5.0E-4                    -0.0055                  330.44647320652086
5.0E-4                    -0.0045                  329.7785860778241
5.0E-4                    -0.0035                  329.3508123024186
5.0E-4                    -0.0025                  328.7963036883418
5.0E-4                    -0.0015                  328.230584080376
5.0E-4                    -5.0E-4                  327.94483682078305
5.0E-4                    5.0E-4                   327.4968183622151
5.0E-4                    0.0015                   327.0487999036472
5.0E-4                    0.0025                   326.79324763353236
5.0E-4                    0.0035                   326.3852390091099
5.0E-4                    0.0045                   325.97263606182736
5.0E-4                    0.0055                   325.4363291689559
5.0E-4                    0.0065                   324.81843547268494
5.0E-4                    0.0075                   324.0878924013842
5.0E-4                    0.0085                   322.59659686710495
5.0E-4                    0.0095                   320.8794119856109
5.0E-4                    0.0105                   318.8818350631893
5.0E-4                    0.0115                   313.2191175017723
5.0E-4                    0.0125                   306.9564086562156
5.0E-4                    0.0135                   302.0920789617251
5.0E-4                    0.0145                   300.5051442605546
5.0E-4                    0.0155                   298.918209559384
5.0E-4                    0.0165                   295.9760964587782
5.0E-4                    0.0175                   294.6634050939571
5.0E-4                    0.0185                   293.44523082221735
5.0E-4                    0.0195                   293.15131428241983
5.0E-4                    0.0205                   293.1372333802472
5.0E-4                    0.0215                   293.14104199257577
5.0E-4                    0.0225                   293.14763026047706
5.0E-4                    0.0235                   293.1522323598748
5.0E-4                    0.0245                   293.1551058691924
5.0E-4                    0.0255                   293.15492689763414
5.0E-4                    0.0265                   293.15506157001647
5.0E-4                    0.0275                   293.1562726242454
5.0E-4                    0.0285                   293.15686677808225
5.0E-4                    0.0295                   293.16238410399876
5.0E-4                    0.0305                   293.1724687741255
5.0E-4                    0.0315                   293.1826026138967
0.0015                    -0.0315                  379.8416377952625
0.0015                    -0.0305                  378.79607347121544
0.0015                    -0.0295                  376.52585458473413
0.0015                    -0.0285                  373.1143300534835
0.0015                    -0.0275                  369.53600070701197
0.0015                    -0.0265                  365.05422671764626
0.0015                    -0.0255                  360.4171561921601
0.0015                    -0.0245                  356.4098430937438
0.0015                    -0.0235                  352.90193691059307
0.0015                    -0.0225                  349.4838274815353
0.0015                    -0.0215                  346.65006926450087
0.0015                    -0.0205                  344.57687277466164
0.0015                    -0.0195                  342.563828828117
0.0015                    -0.0185                  340.8554429056178
0.0015                    -0.0175                  339.53014528721656
0.0015                    -0.0165                  338.22552142442026
0.0015                    -0.0155                  337.09667304800985
0.0015                    -0.0145                  336.131931358564
0.0015                    -0.0135                  335.15414087219585
0.0015                    -0.0125                  334.333808083949
0.0015                    -0.0115                  333.5993527796311
0.0015                    -0.0105                  332.7930576533741
0.0015                    -0.0095                  332.21179897691707
0.0015                    -0.0085                  331.6774402132926
0.0015                    -0.0075                  330.94575205390214
0.0015                    -0.0065                  330.5622903514369
0.0015                    -0.0055                  330.1251672502067
0.0015                    -0.0045                  329.5295808801747
0.0015                    -0.0035                  329.2854117561146
0.0015                    -0.0025                  328.92355773894224
0.0015                    -0.0015                  328.50867800729526
0.0015                    -5.0E-4                  328.38127351544904
0.0015                    5.0E-4                   328.0801631542101
0.0015                    0.0015                   327.78741357551945
0.0015                    0.0025                   327.63877222263875
0.0015                    0.0035                   327.3040922652431
0.0015                    0.0045                   326.86220176140193
0.0015                    0.0055                   326.405381496372
0.0015                    0.0065                   325.8048504250183
0.0015                    0.0075                   324.8245411578157
0.0015                    0.0085                   323.7448275764423
0.0015                    0.0095                   321.9957891531043
0.0015                    0.0105                   319.6532186408849
0.0015                    0.0115                   316.3434655104934
0.0015                    0.0125                   310.5913428635592
0.0015                    0.0135                   306.43011546118635
0.0015                    0.0145                   303.4007496544524
0.0015                    0.0155                   300.73171095050196
0.0015                    0.0165                   296.739129059212
0.0015                    0.0175                   294.57441035263514
0.0015                    0.0185                   293.7658953707272
0.0015                    0.0195                   293.124552606227
0.0015                    0.0205                   293.114184374783
0.0015                    0.0215                   293.1375703771916
0.0015                    0.0225                   293.1543922831037
0.0015                    0.0235                   293.158507515825
0.0015                    0.0245                   293.16200184435826
0.0015                    0.0255                   293.1630128110567
0.0015                    0.0265                   293.1644859718413
0.0015                    0.0275                   293.16644060184564
0.0015                    0.0285                   293.1687971676978
0.0015                    0.0295                   293.17917419941716
0.0015                    0.0305                   293.1895728186038
0.0015                    0.0315                   293.2338265302213
0.0025                    -0.0315                  378.86232596953465
0.0025                    -0.0305                  377.25986617900855
0.0025                    -0.0295                  374.8224480189985
0.0025                    -0.0285                  371.47137136408867
0.0025                    -0.0275                  367.19487415873954
0.0025                    -0.0265                  362.71928497773234
0.0025                    -0.0255                  358.25253268407386
0.0025                    -0.0245                  354.3127311411141
0.0025                    -0.0235                  350.82814297878235
0.0025                    -0.0225                  347.3435548164506
0.0025                    -0.0215                  344.924367309806
0.0025                    -0.0205                  342.84717110968336
0.0025                    -0.0195                  340.7699749095607
0.0025                    -0.0185                  339.4436774795722
0.0025                    -0.0175                  338.11833593836366
0.0025                    -0.0165                  336.8615823273047
0.0025                    -0.0155                  335.9329454889057
0.0025                    -0.0145                  334.9675307603094
0.0025                    -0.0135                  334.1267234712589
0.0025                    -0.0125                  333.3905005246503
0.0025                    -0.0115                  332.6542775780415
0.0025                    -0.0105                  332.0580603937055
0.0025                    -0.0095                  331.5247654191637
0.0025                    -0.0085                  330.991470444622
0.0025                    -0.0075                  330.6066869569093
0.0025                    -0.0065                  330.2221577887777
0.0025                    -0.0055                  329.837628620646
0.0025                    -0.0045                  329.6414892976732
0.0025                    -0.0035                  329.3960447876246
0.0025                    -0.0025                  329.1506002775759
0.0025                    -0.0015                  329.1074730336588
0.0025                    -5.0E-4                  328.9792327418231
0.0025                    5.0E-4                   328.88867448685266
0.0025                    0.0015                   328.7594455244237
0.0025                    0.0025                   328.6108094953275
0.0025                    0.0035                   328.3523693234424
0.0025                    0.0045                   327.8965560535928
0.0025                    0.0055                   327.44074278374313
0.0025                    0.0065                   326.60714971902905
0.0025                    0.0075                   325.5734831120735
0.0025                    0.0085                   324.5398165051179
0.0025                    0.0095                   322.59722191411595
0.0025                    0.0105                   320.2485862662163
0.0025                    0.0115                   317.8999506183168
0.0025                    0.0125                   314.4016591632623
0.0025                    0.0135                   310.21895142129426
0.0025                    0.0145                   305.9479441565521
0.0025                    0.0155                   301.7593351974938
0.0025                    0.0165                   297.75434862193237
0.0025                    0.0175                   294.63413395209335
0.0025                    0.0185                   293.9822219165426
0.0025                    0.0195                   293.33030988099176
0.0025                    0.0205                   293.11122643995947
0.0025                    0.0215                   293.13461918902567
0.0025                    0.0225                   293.1579634608496
0.0025                    0.0235                   293.16513757786646
0.0025                    0.0245                   293.1686417634517
0.0025                    0.0255                   293.17178318293156
0.0025                    0.0265                   293.17370406232965
0.0025                    0.0275                   293.1756249417277
0.0025                    0.0285                   293.18429267428684
0.0025                    0.0295                   293.19431563750857
0.0025                    0.0305                   293.2298107289786
0.0025                    0.0315                   293.2850504465459
0.0035                    -0.0315                  376.8137378391867
0.0035                    -0.0305                  374.88126570071495
0.0035                    -0.0295                  372.82957604220087
0.0035                    -0.0285                  368.9709928562123
0.0035                    -0.0275                  363.8967554373205
0.0035                    -0.0265                  359.09159175663035
0.0035                    -0.0255                  354.78533891909586
0.0035                    -0.0245                  351.0139970987382
0.0035                    -0.0235                  347.4641068525804
0.0035                    -0.0225                  344.51462130927797
0.0035                    -0.0215                  342.5878181160216
0.0035                    -0.0205                  340.5214109532651
0.0035                    -0.0195                  338.9907975777027
0.0035                    -0.0185                  337.91377046071716
0.0035                    -0.0175                  336.5884289195085
0.0035                    -0.0165                  335.7533695407785
0.0035                    -0.0155                  335.01610033119744
0.0035                    -0.0145                  334.0506856026011
0.0035                    -0.0135                  333.55694967130614
0.0035                    -0.0125                  332.9808155084402
0.0035                    -0.0115                  332.2695507471254
0.0035                    -0.0105                  331.9941731039735
0.0035                    -0.0095                  331.55271482341016
0.0035                    -0.0085                  331.11862510724495
0.0035                    -0.0075                  331.0416089481444
0.0035                    -0.0065                  330.7129827574124
0.0035                    -0.0055                  330.5495355464604
0.0035                    -0.0045                  330.74249787992517
0.0035                    -0.0035                  330.5003729338342
0.0035                    -0.0025                  330.59980816770474
0.0035                    -0.0015                  330.89497196526185
0.0035                    -5.0E-4                  330.7667316734262
0.0035                    5.0E-4                   330.8660592209005
0.0035                    0.0015                   330.9380908243253
0.0035                    0.0025                   330.78945479522906
0.0035                    0.0035                   330.2677874899875
0.0035                    0.0045                   329.7590910581466
0.0035                    0.0055                   329.219357781379
0.0035                    0.0065                   327.6048639905629
0.0035                    0.0075                   326.39022748807133
0.0035                    0.0085                   324.95467655683666
0.0035                    0.0095                   322.3407841499407
0.0035                    0.0105                   319.9564100430252
0.0035                    0.0115                   317.69613156691435
0.0035                    0.0125                   315.419264410477
0.0035                    0.0135                   311.236556668509
0.0035                    0.0145                   306.287328244716
0.0035                    0.0155                   301.3827244708765
0.0035                    0.0165                   297.38741185637286
0.0035                    0.0175                   295.13111927266334
0.0035                    0.0185                   293.81138508297926
0.0035                    0.0195                   293.3157309889997
0.0035                    0.0205                   293.1244983442886
0.0035                    0.0215                   293.1335135794535
0.0035                    0.0225                   293.1563923046092
0.0035                    0.0235                   293.17368419498257
0.0035                    0.0245                   293.1771883805678
0.0035                    0.0255                   293.1800861377111
0.0035                    0.0265                   293.182426756227
0.0035                    0.0275                   293.1876431155552
0.0035                    0.0285                   293.1979800500186
0.0035                    0.0295                   293.2081147898165
0.0035                    0.0305                   293.2545202689985
0.0035                    0.0315                   293.3188214318558
0.0045                    -0.0315                  374.87326418592363
0.0045                    -0.0305                  372.82506577608694
0.0045                    -0.0295                  370.7154297710909
0.0045                    -0.0285                  365.6760344064628
0.0045                    -0.0275                  360.59970226929215
0.0045                    -0.0265                  355.5243992970097
0.0045                    -0.0255                  351.5957006297428
0.0045                    -0.0245                  347.8243588093851
0.0045                    -0.0235                  344.1000707263785
0.0045                    -0.0225                  342.0968127412448
0.0045                    -0.0215                  340.17000954798834
0.0045                    -0.0205                  338.34134639795724
0.0045                    -0.0195                  337.2942268024593
0.0045                    -0.0185                  336.2471072069614
0.0045                    -0.0175                  335.2906746018032
0.0045                    -0.0165                  334.6451567542524
0.0045                    -0.0155                  333.9996389067016
0.0045                    -0.0145                  333.40376087183677
0.0045                    -0.0135                  332.9679947184823
0.0045                    -0.0125                  332.532228565128
0.0045                    -0.0115                  332.1434862968402
0.0045                    -0.0105                  331.86810865368835
0.0045                    -0.0095                  331.5806642276566
0.0045                    -0.0085                  331.4255107679129
0.0045                    -0.0075                  331.34849460881236
0.0045                    -0.0065                  331.20380772604716
0.0045                    -0.0055                  331.39128923449994
0.0045                    -0.0045                  331.58425156796477
0.0045                    -0.0035                  331.70219623995933
0.0045                    -0.0025                  332.0824878670993
0.0045                    -0.0015                  332.4627794942393
0.0045                    -5.0E-4                  332.6566162146239
0.0045                    5.0E-4                   332.8434439549484
0.0045                    0.0015                   333.03027169527275
0.0045                    0.0025                   332.76106266877514
0.0045                    0.0035                   332.1959826600866
0.0045                    0.0045                   331.63090265139806
0.0045                    0.0055                   330.38596019269033
0.0045                    0.0065                   328.7714664018742
0.0045                    0.0075                   327.20697186406915
0.0045                    0.0085                   324.8216355841814
0.0045                    0.0095                   322.20774317728547
0.0045                    0.0105                   319.6780439153041
0.0045                    0.0115                   317.51989947527267
0.0045                    0.0125                   315.3617550352411
0.0045                    0.0135                   311.8973975209592
0.0045                    0.0145                   306.62671233287983
0.0045                    0.0155                   301.3560271448004
0.0045                    0.0165                   298.1016898073069
0.0045                    0.0175                   295.84539722359744
0.0045                    0.0185                   293.64054824941593
0.0045                    0.0195                   293.4300717877554
0.0045                    0.0205                   293.2388391430444
0.0045                    0.0215                   293.13217788124194
0.0045                    0.0225                   293.1548211483688
0.0045                    0.0235                   293.17746441549565
0.0045                    0.0245                   293.1853751697292
0.0045                    0.0255                   293.18826766956437
0.0045                    0.0265                   293.19114945012444
0.0045                    0.0275                   293.20122022675866
0.0045                    0.0285                   293.2115030861057
0.0045                    0.0295                   293.22171180264786
0.0045                    0.0305                   293.2920736652373
0.0045                    0.0315                   293.3635119493092
0.0055                    -0.0315                  372.93279053266053
0.0055                    -0.0305                  370.57681498829197
0.0055                    -0.0295                  368.0747098863202
0.0055                    -0.0285                  362.4379394958452
0.0055                    -0.0275                  357.3392870724518
0.0055                    -0.0265                  352.71141570352233
0.0055                    -0.0255                  348.7180699298722
0.0055                    -0.0245                  344.9297733671169
0.0055                    -0.0235                  342.2172543920002
0.0055                    -0.0225                  340.3964998340635
0.0055                    -0.0215                  338.47953226929224
0.0055                    -0.0205                  337.4219638184172
0.0055                    -0.0195                  336.4626164321522
0.0055                    -0.0185                  335.41764256082286
0.0055                    -0.0175                  334.9881764540779
0.0055                    -0.0165                  334.3614667067339
0.0055                    -0.0155                  333.7678166622233
0.0055                    -0.0145                  333.51839749077413
0.0055                    -0.0135                  333.0771408621732
0.0055                    -0.0125                  332.7381600875361
0.0055                    -0.0115                  332.59755696470177
0.0055                    -0.0105                  332.3185654695286
0.0055                    -0.0095                  332.2201517699388
0.0055                    -0.0085                  332.25455796540007
0.0055                    -0.0075                  332.175296261875
0.0055                    -0.0065                  332.39884630788214
0.0055                    -0.0055                  332.6782834435096
0.0055                    -0.0045                  332.8698578131917
0.0055                    -0.0035                  333.37223281450866
0.0055                    -0.0025                  333.7970298311946
0.0055                    -0.0015                  334.17684191073164
0.0055                    -5.0E-4                  334.51773923861003
0.0055                    5.0E-4                   334.7094092728403
0.0055                    0.0015                   334.81870462325804
0.0055                    0.0025                   334.2335724926126
0.0055                    0.0035                   333.6679720781718
0.0055                    0.0045                   332.7651994636553
0.0055                    0.0055                   331.0264274072316
0.0055                    0.0065                   329.4096719327838
0.0055                    0.0075                   326.988623432402
0.0055                    0.0085                   323.9724105322482
0.0055                    0.0095                   321.34848183385463
0.0055                    0.0105                   318.7898072200017
0.0055                    0.0115                   316.49850700543715
0.0055                    0.0125                   314.3249791459239
0.0055                    0.0135                   311.40961922840927
0.0055                    0.0145                   306.4009135845613
0.0055                    0.0155                   301.4182711976378
0.0055                    0.0165                   297.64745807387834
0.0055                    0.0175                   295.3835781226219
0.0055                    0.0185                   293.9217342086729
0.0055                    0.0195                   293.3799641103372
0.0055                    0.0205                   293.1895962962793
0.0055                    0.0215                   293.14535915456753
0.0055                    0.0225                   293.1605633461246
0.0055                    0.0235                   293.18128297832914
0.0055                    0.0245                   293.19386440965883
0.0055                    0.0255                   293.1967708023524
0.0055                    0.0265                   293.2014350443879
0.0055                    0.0275                   293.2095268349581
0.0055                    0.0285                   293.2197355515002
0.0055                    0.0295                   293.24302112858413
0.0055                    0.0305                   293.32263602224623
0.0055                    0.0315                   293.40820246676265
0.0065                    -0.0315                  370.6120398713053
0.0065                    -0.0305                  368.06325280583684
0.0065                    -0.0295                  365.3016969929346
0.0065                    -0.0285                  359.6649266024597
0.0065                    -0.0275                  354.15711947042365
0.0065                    -0.0265                  350.0312094692156
0.0065                    -0.0255                  345.90529946800757
0.0065                    -0.0245                  342.2373277392615
0.0065                    -0.0235                  340.52591657090045
0.0065                    -0.0225                  338.8145054025394
0.0065                    -0.0215                  337.30879347697356
0.0065                    -0.0205                  336.55412543179864
0.0065                    -0.0195                  335.77215858022964
0.0065                    -0.0185                  335.09391338186896
0.0065                    -0.0175                  334.6927730272629
0.0065                    -0.0165                  334.21427256095666
0.0065                    -0.0155                  333.88187081441777
0.0065                    -0.0145                  333.65244035542685
0.0065                    -0.0135                  333.31692417297586
0.0065                    -0.0125                  333.1972604315651
0.0065                    -0.0115                  333.1092867172624
0.0065                    -0.0105                  332.91601884639255
0.0065                    -0.0095                  333.0433973575573
0.0065                    -0.0085                  333.17077586872205
0.0065                    -0.0075                  333.229544983852
0.0065                    -0.0065                  333.6534329785851
0.0065                    -0.0055                  334.07186161615476
0.0065                    -0.0045                  334.4147956992353
0.0065                    -0.0035                  335.01347861812354
0.0065                    -0.0025                  335.56939163406076
0.0065                    -0.0015                  335.926806198406
0.0065                    -5.0E-4                  336.2647645735615
0.0065                    5.0E-4                   336.5469751591481
0.0065                    0.0015                   336.1884851717717
0.0065                    0.0025                   335.60011423885817
0.0065                    0.0035                   335.02408951006146
0.0065                    0.0045                   333.38212595498885
0.0065                    0.0055                   331.58755464497324
0.0065                    0.0065                   329.8242826863408
0.0065                    0.0075                   326.43921917827447
0.0065                    0.0085                   323.05415567020816
0.0065                    0.0095                   320.3677335707493
0.0065                    0.0105                   317.84081856322285
0.0065                    0.0115                   315.3380672183434