% Model:              SIMBench260525.mph
% Version:            COMSOL 6.2.0.339
% Date:               May 27 2026, 17:46
% Dimension:          2
% Nodes:              4096
% Expressions:        1
% Description:        温度
% Length unit:        m
% x                       y                        T (K)
5.0E-4                    -0.0315                  449.7421239200905
5.0E-4                    -0.0305                  447.761631723277
5.0E-4                    -0.0295                  445.77324777430954
5.0E-4                    -0.0285                  441.7606024962838
5.0E-4                    -0.0275                  437.48879464734387
5.0E-4                    -0.0265                  433.151198526645
5.0E-4                    -0.0255                  428.8949854943529
5.0E-4                    -0.0245                  424.93729663784205
5.0E-4                    -0.0235                  421.3120473049661
5.0E-4                    -0.0225                  418.6112571754826
5.0E-4                    -0.0215                  416.01638605791373
5.0E-4                    -0.0205                  413.8071426720466
5.0E-4                    -0.0195                  412.1198888618192
5.0E-4                    -0.0185                  410.44867457693704
5.0E-4                    -0.0175                  409.0200514003834
5.0E-4                    -0.0165                  407.80895648084413
5.0E-4                    -0.0155                  406.59786156130485
5.0E-4                    -0.0145                  405.5171684000484
5.0E-4                    -0.0135                  404.6199525326124
5.0E-4                    -0.0125                  403.7196717047835
5.0E-4                    -0.0115                  402.8990384409223
5.0E-4                    -0.0105                  402.27078386131956
5.0E-4                    -0.0095                  401.60417548434907
5.0E-4                    -0.0085                  401.0623808289322
5.0E-4                    -0.0075                  400.6869969307036
5.0E-4                    -0.0065                  400.2357106582749
5.0E-4                    -0.0055                  399.9865917690757
5.0E-4                    -0.0045                  399.82313476351896
5.0E-4                    -0.0035                  399.6073871741945
5.0E-4                    -0.0025                  399.5289321378146
5.0E-4                    -0.0015                  399.4568829426713
5.0E-4                    -5.0E-4                  399.4455257183033
5.0E-4                    5.0E-4                   399.4487696374553
5.0E-4                    0.0015                   399.4520135566073
5.0E-4                    0.0025                   399.44431797634275
5.0E-4                    0.0035                   399.3309501107433
5.0E-4                    0.0045                   399.20477860055877
5.0E-4                    0.0055                   398.7668703445629
5.0E-4                    0.0065                   398.1351516382016
5.0E-4                    0.0075                   397.35947966138013
5.0E-4                    0.0085                   394.74880627849615
5.0E-4                    0.0095                   391.42440747311286
5.0E-4                    0.0105                   387.9904642165904
5.0E-4                    0.0115                   371.46894611635344
5.0E-4                    0.0125                   352.60639507205286
5.0E-4                    0.0135                   337.204878274073
5.0E-4                    0.0145                   327.1036605034749
5.0E-4                    0.0155                   317.0024427328767
5.0E-4                    0.0165                   304.42674467303925
5.0E-4                    0.0175                   299.2406479203181
5.0E-4                    0.0185                   294.4164982217376
5.0E-4                    0.0195                   293.2098198674165
5.0E-4                    0.0205                   293.1290197077051
5.0E-4                    0.0215                   293.11648728575784
5.0E-4                    0.0225                   293.1368841431964
5.0E-4                    0.0235                   293.152327803528
5.0E-4                    0.0245                   293.1622799418591
5.0E-4                    0.0255                   293.16197188563586
5.0E-4                    0.0265                   293.162183234566
5.0E-4                    0.0275                   293.1640720201185
5.0E-4                    0.0285                   293.16485201520675
5.0E-4                    0.0295                   293.1745010157791
5.0E-4                    0.0305                   293.1914754525629
5.0E-4                    0.0315                   293.20849391539264
0.0015                    -0.0315                  449.2101766229266
0.0015                    -0.0305                  447.69617555142673
0.0015                    -0.0295                  444.87979963500345
0.0015                    -0.0285                  440.717944111068
0.0015                    -0.0275                  436.4878292914491
0.0015                    -0.0265                  431.91186813724414
0.0015                    -0.0255                  427.2769794223436
0.0015                    -0.0245                  423.30009432581704
0.0015                    -0.0235                  420.28281997019053
0.0015                    -0.0225                  417.34693013754907
0.0015                    -0.0215                  414.84580017294195
0.0015                    -0.0205                  413.00398800189134
0.0015                    -0.0195                  411.21440895255125
0.0015                    -0.0185                  409.64600413671303
0.0015                    -0.0175                  408.311562646071
0.0015                    -0.0165                  407.0368028029709
0.0015                    -0.0155                  405.8646160154817
0.0015                    -0.0145                  404.73397523852265
0.0015                    -0.0135                  403.7577963718952
0.0015                    -0.0125                  402.81304933530885
0.0015                    -0.0115                  401.84342047948326
0.0015                    -0.0105                  401.16013168132866
0.0015                    -0.0095                  400.3856148775593
0.0015                    -0.0085                  399.58682377771856
0.0015                    -0.0075                  399.21143987949
0.0015                    -0.0065                  398.6425540576066
0.0015                    -0.0055                  398.15050733876427
0.0015                    -0.0045                  397.97131129859997
0.0015                    -0.0035                  397.7155752090498
0.0015                    -0.0025                  397.52706248727515
0.0015                    -0.0015                  397.4836900912906
0.0015                    -5.0E-4                  397.4949369330226
0.0015                    5.0E-4                   397.5018488276175
0.0015                    0.0015                   397.5276377748928
0.0015                    0.0025                   397.5743134784775
0.0015                    0.0035                   397.506200153824
0.0015                    0.0045                   397.2986064241181
0.0015                    0.0055                   397.04968801338
0.0015                    0.0065                   396.45897671135316
0.0015                    0.0075                   395.3642506017273
0.0015                    0.0085                   394.0537827087247
0.0015                    0.0095                   390.7154912315764
0.0015                    0.0105                   387.14788371764314
0.0015                    0.0115                   379.8069443085827
0.0015                    0.0125                   362.24091832304975
0.0015                    0.0135                   348.7150014659958
0.0015                    0.0145                   336.69462918771467
0.0015                    0.0155                   323.8592770505085
0.0015                    0.0165                   307.6790076401346
0.0015                    0.0175                   298.9675350082024
0.0015                    0.0185                   295.7161042653821
0.0015                    0.0195                   293.11061020536636
0.0015                    0.0205                   293.04384003902464
0.0015                    0.0215                   293.1061197942554
0.0015                    0.0225                   293.1520350775411
0.0015                    0.0235                   293.1660267943647
0.0015                    0.0245                   293.17816690846803
0.0015                    0.0255                   293.1818914925344
0.0015                    0.0265                   293.18431942282814
0.0015                    0.0275                   293.18754467977567
0.0015                    0.0285                   293.19149947685366
0.0015                    0.0295                   293.20990314947414
0.0015                    0.0305                   293.2278233218657
0.0015                    0.0315                   293.3037695435686
0.0025                    -0.0315                  448.6782293257627
0.0025                    -0.0305                  446.86392447627554
0.0025                    -0.0295                  444.00846503578873
0.0025                    -0.0285                  439.81538066189546
0.0025                    -0.0275                  435.16123148312215
0.0025                    -0.0265                  430.55386194641585
0.0025                    -0.0255                  425.953049924345
0.0025                    -0.0245                  422.2672716642022
0.0025                    -0.0235                  419.27613265828916
0.0025                    -0.0225                  416.2849936523761
0.0025                    -0.0215                  414.1698446118145
0.0025                    -0.0205                  412.33234890179875
0.0025                    -0.0195                  410.4948531917831
0.0025                    -0.0185                  409.1490340182064
0.0025                    -0.0175                  407.81492813102
0.0025                    -0.0165                  406.48431400844385
0.0025                    -0.0155                  405.3320443931733
0.0025                    -0.0145                  404.19890594779474
0.0025                    -0.0135                  402.91633889844104
0.0025                    -0.0125                  401.94604224288935
0.0025                    -0.0115                  400.97574558733777
0.0025                    -0.0105                  399.8190391316198
0.0025                    -0.0095                  399.0160312430218
0.0025                    -0.0085                  398.2130233544239
0.0025                    -0.0075                  397.36089232193103
0.0025                    -0.0065                  396.7942208094174
0.0025                    -0.0055                  396.22754929690376
0.0025                    -0.0045                  395.7801732561466
0.0025                    -0.0035                  395.52632342212144
0.0025                    -0.0025                  395.27247358809626
0.0025                    -0.0015                  395.20418865314605
0.0025                    -5.0E-4                  395.21633774654975
0.0025                    5.0E-4                   395.229192295365
0.0025                    0.0015                   395.2737368363021
0.0025                    0.0025                   395.319916709553
0.0025                    0.0035                   395.3402653982302
0.0025                    0.0045                   395.08796267542374
0.0025                    0.0055                   394.8356599526173
0.0025                    0.0065                   394.3098761256896
0.0025                    0.0075                   393.1443339295597
0.0025                    0.0085                   391.97879173342983
0.0025                    0.0095                   389.6087779381717
0.0025                    0.0105                   386.03521917588074
0.0025                    0.0115                   382.4616604135897
0.0025                    0.0125                   372.2641983602899
0.0025                    0.0135                   358.6816748573214
0.0025                    0.0145                   344.73487576445376
0.0025                    0.0155                   328.2331430300611
0.0025                    0.0165                   312.0013856862222
0.0025                    0.0175                   299.2521910254267
0.0025                    0.0185                   296.6085175899544
0.0025                    0.0195                   293.964844154482
0.0025                    0.0205                   293.03287912359593
0.0025                    0.0215                   293.0951516893791
0.0025                    0.0225                   293.15782058847384
0.0025                    0.0235                   293.1807781449213
0.0025                    0.0245                   293.1929473568464
0.0025                    0.0255                   293.2028905490421
0.0025                    0.0265                   293.20604935648066
0.0025                    0.0275                   293.2092081639192
0.0025                    0.0285                   293.22454250238735
0.0025                    0.0295                   293.2423009617817
0.0025                    0.0305                   293.3037943634962
0.0025                    0.0315                   293.39904517174455
0.0035                    -0.0315                  447.7303809971392
0.0035                    -0.0305                  445.5774160556081
0.0035                    -0.0295                  443.2866753409985
0.0035                    -0.0285                  438.8407400879931
0.0035                    -0.0275                  433.78913924713225
0.0035                    -0.0265                  428.93720643392095
0.0035                    -0.0255                  424.6532688261677
0.0035                    -0.0245                  421.4254093540517
0.0035                    -0.0235                  418.38036195456857
0.0035                    -0.0225                  415.8325499344912
0.0035                    -0.0215                  414.1320342208267
0.0035                    -0.0205                  412.30436633453706
0.0035                    -0.0195                  410.8052997412382
0.0035                    -0.0185                  409.591181936127
0.0035                    -0.0175                  408.25707604894046
0.0035                    -0.0165                  406.9479499826896
0.0035                    -0.0155                  405.69616791022514
0.0035                    -0.0145                  404.5630294648466
0.0035                    -0.0135                  402.7437789811985
0.0035                    -0.0125                  401.27617903339024
0.0035                    -0.0115                  400.24418544121966
0.0035                    -0.0105                  398.1239163100936
0.0035                    -0.0095                  396.85199553927043
0.0035                    -0.0085                  395.8800669833797
0.0035                    -0.0075                  394.2975012695856
0.0035                    -0.0065                  393.5460131472006
0.0035                    -0.0055                  392.8425460559802
0.0035                    -0.0045                  391.917879319598
0.0035                    -0.0035                  391.65883389270584
0.0035                    -0.0025                  391.34868962275016
0.0035                    -0.0015                  391.05417786865576
0.0035                    -5.0E-4                  391.06632696205946
0.0035                    5.0E-4                   391.08271487488275
0.0035                    0.0015                   391.1103580240589
0.0035                    0.0025                   391.15653789730976
0.0035                    0.0035                   391.24812267625595
0.0035                    0.0045                   391.1647258716896
0.0035                    0.0055                   390.909524459814
0.0035                    0.0065                   390.6201995853584
0.0035                    0.0075                   389.7257232950025
0.0035                    0.0085                   388.4544844009174
0.0035                    0.0095                   386.89210161333494
0.0035                    0.0105                   383.58497689470903
0.0035                    0.0115                   379.70642272327694
0.0035                    0.0125                   374.9329256853446
0.0035                    0.0135                   361.35040218237623
0.0035                    0.0145                   344.601905854226
0.0035                    0.0155                   327.0458758004487
0.0035                    0.0165                   310.8141184566098
0.0035                    0.0175                   301.4595121804548
0.0035                    0.0185                   295.9972688590969
0.0035                    0.0195                   293.9516022749937
0.0035                    0.0205                   293.0840386630281
0.0035                    0.0215                   293.0820575279215
0.0035                    0.0225                   293.1485352554495
0.0035                    0.0235                   293.2012224407897
0.0035                    0.0245                   293.21339165271485
0.0035                    0.0255                   293.22151531926863
0.0035                    0.0265                   293.22680382643574
0.0035                    0.0275                   293.2359161312945
0.0035                    0.0285                   293.2542790841269
0.0035                    0.0295                   293.27225274860393
0.0035                    0.0305                   293.3524789854081
0.0035                    0.0315                   293.4615537497739
0.0045                    -0.0315                  447.20548478765323
0.0045                    -0.0305                  444.85134854961495
0.0045                    -0.0295                  442.5274219196158
0.0045                    -0.0285                  437.5489514918281
0.0045                    -0.0275                  432.44412303008664
0.0045                    -0.0265                  427.36544617028164
0.0045                    -0.0255                  423.90146703763105
0.0045                    -0.0245                  420.673607565515
0.0045                    -0.0235                  417.484591250848
0.0045                    -0.0225                  415.7207278163336
0.0045                    -0.0215                  414.02021210266906
0.0045                    -0.0205                  412.3665866059768
0.0045                    -0.0195                  411.1669151970816
0.0045                    -0.0185                  409.9672437881864
0.0045                    -0.0175                  408.7110510358005
0.0045                    -0.0165                  407.41158595693526
0.0045                    -0.0155                  406.1121208780701
0.0045                    -0.0145                  404.5346379970938
0.0045                    -0.0135                  402.6308636702877
0.0045                    -0.0125                  400.72708934348174
0.0045                    -0.0115                  398.86678047231396
0.0045                    -0.0105                  396.746511341188
0.0045                    -0.0095                  394.68795983551917
0.0045                    -0.0085                  393.23972773442404
0.0045                    -0.0075                  391.65716202063
0.0045                    -0.0065                  390.29780548498377
0.0045                    -0.0055                  389.3769784017216
0.0045                    -0.0045                  388.4523116653393
0.0045                    -0.0035                  387.7755048688064
0.0045                    -0.0025                  387.4194537667572
0.0045                    -0.0015                  387.0634026647081
0.0045                    -5.0E-4                  386.91822167076907
0.0045                    5.0E-4                   386.9362374544006
0.0045                    0.0015                   386.9542532380321
0.0045                    0.0025                   387.0183833382371
0.0045                    0.0035                   387.1151733338412
0.0045                    0.0045                   387.21196332944544
0.0045                    0.0055                   386.9640187979032
0.0045                    0.0065                   386.67469392344753
0.0045                    0.0075                   386.3071126604454
0.0045                    0.0085                   384.7965394151812
0.0045                    0.0095                   383.2341566275988
0.0045                    0.0105                   381.0846076740063
0.0045                    0.0115                   376.85660587347553
0.0045                    0.0125                   372.6286040729448
0.0045                    0.0135                   362.5486225528815
0.0045                    0.0145                   344.4689359439983
0.0045                    0.0155                   326.3892493351151
0.0045                    0.0165                   313.882332261535
0.0045                    0.0175                   304.5447893221357
0.0045                    0.0185                   295.38602012823947
0.0045                    0.0195                   294.43849077719744
0.0045                    0.0205                   293.57092716523175
0.0045                    0.0215                   293.07084062276476
0.0045                    0.0225                   293.13924992242505
0.0045                    0.0235                   293.20765922208534
0.0045                    0.0245                   293.2314355254774
0.0045                    0.0255                   293.2395240997959
0.0045                    0.0265                   293.24755829639076
0.0045                    0.0275                   293.26544041912166
0.0045                    0.0285                   293.2836908226021
0.0045                    0.0295                   293.3017869275076
0.0045                    0.0305                   293.41882468448176
0.0045                    0.0315                   293.5377134210463
0.0055                    -0.0315                  446.6805885781673
0.0055                    -0.0305                  444.4777900767941
0.0055                    -0.0295                  442.1733155369636
0.0055                    -0.0285                  437.1323754549546
0.0055                    -0.0275                  432.0300914429366
0.0055                    -0.0265                  427.5756661595616
0.0055                    -0.0255                  424.0262959299313
0.0055                    -0.0245                  420.7507993857445
0.0055                    -0.0235                  418.3564522423706
0.0055                    -0.0225                  416.72311429478134
0.0055                    -0.0215                  415.0378707916348
0.0055                    -0.0205                  413.80032490534114
0.0055                    -0.0195                  412.637965154954
0.0055                    -0.0185                  411.4410416916188
0.0055                    -0.0175                  409.27822041725847
0.0055                    -0.0165                  407.8961913482061
0.0055                    -0.0155                  406.2119469367699
0.0055                    -0.0145                  402.2078658910543
0.0055                    -0.0135                  400.3219288174437
0.0055                    -0.0125                  397.99112582965256
0.0055                    -0.0115                  394.9303302466596
0.0055                    -0.0105                  392.8263727751902
0.0055                    -0.0095                  390.6919225284843
0.0055                    -0.0085                  388.7881926091809
0.0055                    -0.0075                  387.21326835611245
0.0055                    -0.0065                  385.8889730751474
0.0055                    -0.0055                  384.8780801658096
0.0055                    -0.0045                  383.95645999725684
0.0055                    -0.0035                  383.387770917518
0.0055                    -0.0025                  383.0112913285826
0.0055                    -0.0015                  382.65610235951857
0.0055                    -5.0E-4                  382.62021765802035
0.0055                    5.0E-4                   382.6373157708367
0.0055                    0.0015                   382.67670822681293
0.0055                    0.0025                   382.8876483470546
0.0055                    0.0035                   382.98444477706244
0.0055                    0.0045                   383.1115409789311
0.0055                    0.0055                   383.16138732618117
0.0055                    0.0065                   382.87290593104706
0.0055                    0.0075                   382.5423537130353
0.0055                    0.0085                   381.5894386190977
0.0055                    0.0095                   380.03197437568906
0.0055                    0.0105                   378.31617603094367
0.0055                    0.0115                   374.9065914425342
0.0055                    0.0125                   370.69393659169765
0.0055                    0.0135                   362.1251043889413
0.0055                    0.0145                   345.1606342705409
0.0055                    0.0155                   327.54612603510645
0.0055                    0.0165                   312.3900168969727
0.0055                    0.0175                   303.01723461107383
0.0055                    0.0185                   296.7208011001445
0.0055                    0.0195                   294.2543910475373
0.0055                    0.0205                   293.39065778117146
0.0055                    0.0215                   293.1176986118085
0.0055                    0.0225                   293.1472996730504
0.0055                    0.0235                   293.21124752409224
0.0055                    0.0245                   293.25299819352466
0.0055                    0.0255                   293.2612472082719
0.0055                    0.0265                   293.27047768295824
0.0055                    0.0275                   293.28399547100156
0.0055                    0.0285                   293.302091575907
0.0055                    0.0295                   293.3436311610815
0.0055                    0.0305                   293.4740228280236
0.0055                    0.0315                   293.6138730923187
0.0065                    -0.0315                  446.4762124445743
0.0065                    -0.0305                  444.23468842312707
0.0065                    -0.0295                  441.7037214622528
0.0065                    -0.0285                  436.6627813802438
0.0065                    -0.0275                  431.7295425124774
0.0065                    -0.0265                  428.0031134170593
0.0065                    -0.0255                  424.2766843216412
0.0065                    -0.0245                  421.0798793838546
0.0065                    -0.0235                  419.50553025458066
0.0065                    -0.0225                  417.93118112530686
0.0065                    -0.0215                  416.46058060589337
0.0065                    -0.0205                  415.38083770927364
0.0065                    -0.0195                  414.2900762115681
0.0065                    -0.0185                  412.51764512590387
0.0065                    -0.0175                  410.3103275410733
0.0065                    -0.0165                  408.38426910192294
0.0065                    -0.0155                  404.87905800909255
0.0065                    -0.0145                  400.65557663723314
0.0065                    -0.0135                  397.6008224122806
0.0065                    -0.0125                  394.31411672114075
0.0065                    -0.0115                  390.8891585773195
0.0065                    -0.0105                  388.3597776438573
0.0065                    -0.0095                  386.1870142211235
0.0065                    -0.0085                  384.01425079838964
0.0065                    -0.0075                  382.4400940801885
0.0065                    -0.0065                  381.2827684224378
0.0065                    -0.0055                  380.13080837934746
0.0065                    -0.0045                  379.3803163621475
0.0065                    -0.0035                  378.9219446083544
0.0065                    -0.0025                  378.48360571528735
0.0065                    -0.0015                  378.3117340999538
0.0065                    -5.0E-4                  378.30032666527745
0.0065                    5.0E-4                   378.2997439283324
0.0065                    0.0015                   378.4666909616088
0.0065                    0.0025                   378.6963792350899
0.0065                    0.0035                   378.8542671880648
0.0065                    0.0045                   379.04619634448676
0.0065                    0.0055                   379.25087695762
0.0065                    0.0065                   379.0979868890347
0.0065                    0.0075                   378.7200069600089
0.0065                    0.0085                   378.3420270309831
0.0065                    0.0095                   376.85405431037384
0.0065                    0.0105                   375.06368503184694
0.0065                    0.0115                   373.1031132893304