% Model:              SIMBench260525.mph
% Version:            COMSOL 6.2.0.339
% Date:               May 27 2026, 17:52
% Dimension:          2
% Nodes:              4096
% Expressions:        1
% Description:        温度
% Length unit:        m
% x                       y                        T (K)
5.0E-4                    -0.0315                  354.6170719747907
5.0E-4                    -0.0305                  353.0202935220638
5.0E-4                    -0.0295                  351.4192470949021
5.0E-4                    -0.0285                  348.9029942892141
5.0E-4                    -0.0275                  346.7039513840001
5.0E-4                    -0.0265                  344.54488718875183
5.0E-4                    -0.0255                  343.2360813481049
5.0E-4                    -0.0245                  342.01464378198307
5.0E-4                    -0.0235                  340.8985125222528
5.0E-4                    -0.0225                  340.27371366966474
5.0E-4                    -0.0215                  339.57016497327146
5.0E-4                    -0.0205                  338.9574157528396
5.0E-4                    -0.0195                  338.5365730952494
5.0E-4                    -0.0185                  338.08000079200855
5.0E-4                    -0.0175                  337.64928425098594
5.0E-4                    -0.0165                  337.3162124408992
5.0E-4                    -0.0155                  337.00054773152544
5.0E-4                    -0.0145                  336.6380468104057
5.0E-4                    -0.0135                  336.3978823290791
5.0E-4                    -0.0125                  336.1846793017372
5.0E-4                    -0.0115                  335.7857234730453
5.0E-4                    -0.0105                  335.69129347503986
5.0E-4                    -0.0095                  335.6080123698044
5.0E-4                    -0.0085                  335.3314919954442
5.0E-4                    -0.0075                  335.21063686518744
5.0E-4                    -0.0065                  335.0897817349307
5.0E-4                    -0.0055                  334.9566745744994
5.0E-4                    -0.0045                  334.9068498979051
5.0E-4                    -0.0035                  334.85702522131083
5.0E-4                    -0.0025                  334.8915779142709
5.0E-4                    -0.0015                  334.9813698497693
5.0E-4                    -5.0E-4                  335.07306567802607
5.0E-4                    5.0E-4                   335.2334740827288
5.0E-4                    0.0015                   335.3924976921465
5.0E-4                    0.0025                   335.566368117881
5.0E-4                    0.0035                   335.7544642169239
5.0E-4                    0.0045                   335.87227186742354
5.0E-4                    0.0055                   336.0373587312693
5.0E-4                    0.0065                   336.12287324834915
5.0E-4                    0.0075                   336.08309317271085
5.0E-4                    0.0085                   336.08985195131504
5.0E-4                    0.0095                   335.4612851558621
5.0E-4                    0.0105                   334.5943195878995
5.0E-4                    0.0115                   333.8924633491825
5.0E-4                    0.0125                   331.0582668484209
5.0E-4                    0.0135                   327.8572666073289
5.0E-4                    0.0145                   325.3748855859899
5.0E-4                    0.0155                   318.04108068514313
5.0E-4                    0.0165                   310.5844249287118
5.0E-4                    0.0175                   305.249142983716
5.0E-4                    0.0185                   303.6600969084094
5.0E-4                    0.0195                   302.07105083310284
5.0E-4                    0.0205                   297.61872960490643
5.0E-4                    0.0215                   295.59711768642705
5.0E-4                    0.0225                   293.69401082167786
5.0E-4                    0.0235                   293.15783891414526
5.0E-4                    0.0245                   293.13001646275166
5.0E-4                    0.0255                   293.14639110162636
5.0E-4                    0.0265                   293.2113384462215
5.0E-4                    0.0275                   293.2755944958825
5.0E-4                    0.0285                   293.48489868463724
5.0E-4                    0.0295                   293.8707092863692
5.0E-4                    0.0305                   294.216470279495
5.0E-4                    0.0315                   294.51490439576185
0.0015                    -0.0315                  353.974082663178
0.0015                    -0.0305                  352.5421174506949
0.0015                    -0.0295                  350.5186730479992
0.0015                    -0.0285                  347.65186612802484
0.0015                    -0.0275                  345.13905106316906
0.0015                    -0.0265                  343.5215094063742
0.0015                    -0.0255                  342.1532837144989
0.0015                    -0.0245                  340.898078409307
0.0015                    -0.0235                  340.2216340755288
0.0015                    -0.0225                  339.6874194489134
0.0015                    -0.0215                  338.994341524232
0.0015                    -0.0205                  338.6018288533316
0.0015                    -0.0195                  338.2412497108958
0.0015                    -0.0185                  337.78467740765495
0.0015                    -0.0175                  337.39790056038794
0.0015                    -0.0165                  337.02212998023737
0.0015                    -0.0155                  336.6965055373842
0.0015                    -0.0145                  336.28292915169135
0.0015                    -0.0135                  335.9220506429453
0.0015                    -0.0125                  335.6433412900653
0.0015                    -0.0115                  335.1140119265372
0.0015                    -0.0105                  334.7494795550516
0.0015                    -0.0095                  334.5701527635219
0.0015                    -0.0085                  334.17539453710737
0.0015                    -0.0075                  333.9115686486333
0.0015                    -0.0065                  333.77285886833926
0.0015                    -0.0055                  333.60903841146757
0.0015                    -0.0045                  333.51224716733947
0.0015                    -0.0035                  333.4982338484966
0.0015                    -0.0025                  333.5166207002814
0.0015                    -0.0015                  333.5848793324212
0.0015                    -5.0E-4                  333.72016616892193
0.0015                    5.0E-4                   333.8815679053301
0.0015                    0.0015                   334.041046591951
0.0015                    0.0025                   334.28053747148186
0.0015                    0.0035                   334.547341544387
0.0015                    0.0045                   334.6773526439759
0.0015                    0.0055                   334.9580595390987
0.0015                    0.0065                   335.2555918896819
0.0015                    0.0075                   335.2158118140435
0.0015                    0.0085                   335.30133468827944
0.0015                    0.0095                   335.25578854984644
0.0015                    0.0105                   334.4191232743012
0.0015                    0.0115                   333.9009284778282
0.0015                    0.0125                   332.69460793926754
0.0015                    0.0135                   329.74287434214176
0.0015                    0.0145                   327.7675397537381
0.0015                    0.0155                   323.7246149907427
0.0015                    0.0165                   317.1122408696661
0.0015                    0.0175                   312.2173671017933
0.0015                    0.0185                   309.0226824182274
0.0015                    0.0195                   305.1501164551928
0.0015                    0.0205                   298.90572423118584
0.0015                    0.0215                   295.6657187336382
0.0015                    0.0225                   294.2670868509566
0.0015                    0.0235                   293.1113476455678
0.0015                    0.0245                   293.0867167995573
0.0015                    0.0255                   293.15594409723013
0.0015                    0.0265                   293.22393111436395
0.0015                    0.0275                   293.2947448547006
0.0015                    0.0285                   293.57329426766444
0.0015                    0.0295                   293.85184368062824
0.0015                    0.0305                   294.175253533833
0.0015                    0.0315                   294.43793274027956
0.0025                    -0.0315                  353.3310933515653
0.0025                    -0.0305                  351.6140477618086
0.0025                    -0.0295                  349.39333987637946
0.0025                    -0.0285                  346.53333180278094
0.0025                    -0.0275                  344.069765469553
0.0025                    -0.0265                  342.61223695142496
0.0025                    -0.0255                  341.2242741143118
0.0025                    -0.0245                  340.27837404644174
0.0025                    -0.0235                  339.71871007764753
0.0025                    -0.0225                  339.1590461088534
0.0025                    -0.0215                  338.76296553666555
0.0025                    -0.0205                  338.4044318491219
0.0025                    -0.0195                  338.0458981615783
0.0025                    -0.0185                  337.6842656850718
0.0025                    -0.0175                  337.29681863594294
0.0025                    -0.0165                  336.90937158681413
0.0025                    -0.0155                  336.35908720530244
0.0025                    -0.0145                  335.9452573875741
0.0025                    -0.0135                  335.5314275698458
0.0025                    -0.0125                  334.9205359112539
0.0025                    -0.0115                  334.392109305833
0.0025                    -0.0105                  333.8636827004121
0.0025                    -0.0095                  333.4115744045627
0.0025                    -0.0085                  333.0169386868208
0.0025                    -0.0075                  332.62501284537655
0.0025                    -0.0065                  332.44480178080084
0.0025                    -0.0055                  332.2809864810483
0.0025                    -0.0045                  332.1293353780258
0.0025                    -0.0035                  332.14588280961254
0.0025                    -0.0025                  332.16426935366303
0.0025                    -0.0015                  332.2004098857865
0.0025                    -5.0E-4                  332.3617910488398
0.0025                    5.0E-4                   332.5231722118931
0.0025                    0.0015                   332.7009130116903
0.0025                    0.0025                   332.96740206663026
0.0025                    0.0035                   333.2338911215702
0.0025                    0.0045                   333.50421469899914
0.0025                    0.0055                   333.810880306288
0.0025                    0.0065                   334.1175459135769
0.0025                    0.0075                   334.3354145714115
0.0025                    0.0085                   334.42395678937896
0.0025                    0.0095                   334.5124990073463
0.0025                    0.0105                   334.32111463224385
0.0025                    0.0115                   333.8026517746449
0.0025                    0.0125                   333.284188917046
0.0025                    0.0135                   331.89106323231294
0.0025                    0.0145                   329.911489701197
0.0025                    0.0155                   327.93191617008114
0.0025                    0.0165                   323.758760422481
0.0025                    0.0175                   318.8199407506621
0.0025                    0.0185                   313.473111900523
0.0025                    0.0195                   307.11002120703074
0.0025                    0.0205                   300.8568332352769
0.0025                    0.0215                   295.91183477052584
0.0025                    0.0225                   294.72928190904724
0.0025                    0.0235                   293.54672904756853
0.0025                    0.0245                   293.09602392285103
0.0025                    0.0255                   293.1654970928339
0.0025                    0.0265                   293.2347243905067
0.0025                    0.0275                   293.3831404377278
0.0025                    0.0285                   293.6475730787995
0.0025                    0.0295                   293.90435190808586
0.0025                    0.0305                   294.1353157440964
0.0025                    0.0315                   294.3609610847972
0.0035                    -0.0315                  352.27699624547915
0.0035                    -0.0305                  350.2125952856172
0.0035                    -0.0295                  348.2370104948882
0.0035                    -0.0285                  345.59389204532505
0.0035                    -0.0275                  343.6891190709284
0.0035                    -0.0265                  341.932320123629
0.0035                    -0.0255                  340.6559355924469
0.0035                    -0.0245                  340.3676132000229
0.0035                    -0.0235                  339.92640637053853
0.0035                    -0.0225                  339.4409649342077
0.0035                    -0.0215                  339.3924958745498
0.0035                    -0.0205                  339.11848393233754
0.0035                    -0.0195                  338.77397112985614
0.0035                    -0.0185                  338.47076242353535
0.0035                    -0.0175                  338.09677015701607
0.0035                    -0.0165                  337.40993880282906
0.0035                    -0.0155                  336.1758381498574
0.0035                    -0.0145                  335.7160097010578
0.0035                    -0.0135                  334.97795148093843
0.0035                    -0.0125                  333.86840324149784
0.0035                    -0.0115                  333.339976636077
0.0035                    -0.0105                  332.723987306298
0.0035                    -0.0095                  332.07804639692944
0.0035                    -0.0085                  331.68341067918766
0.0035                    -0.0075                  331.35510040304683
0.0035                    -0.0065                  331.09777867479875
0.0035                    -0.0055                  330.93396337504623
0.0035                    -0.0045                  330.83753722181535
0.0035                    -0.0035                  330.7983092781748
0.0035                    -0.0025                  330.81669582222537
0.0035                    -0.0015                  330.862160325885
0.0035                    -5.0E-4                  330.9658208774987
0.0035                    5.0E-4                   331.127202040552
0.0035                    0.0015                   331.26016906136357
0.0035                    0.0025                   331.4713209215466
0.0035                    0.0035                   331.73368614147364
0.0035                    0.0045                   331.9473487900442
0.0035                    0.0055                   332.2257462112915
0.0035                    0.0065                   332.5350192773939
0.0035                    0.0075                   332.8551191141955
0.0035                    0.0085                   332.98880083784945
0.0035                    0.0095                   333.1547772841693
0.0035                    0.0105                   333.49224317266214
0.0035                    0.0115                   333.0434910492531
0.0035                    0.0125                   332.71212922802226
0.0035                    0.0135                   332.5535491148034
0.0035                    0.0145                   330.5739755836874
0.0035                    0.0155                   328.9133723871899
0.0035                    0.0165                   326.9161251292088
0.0035                    0.0175                   321.97730545738995
0.0035                    0.0185                   314.87500356130977
0.0035                    0.0195                   307.58982728569947
0.0035                    0.0205                   301.38777233378187
0.0035                    0.0215                   296.85190434572155
0.0035                    0.0225                   294.4706481624647
0.0035                    0.0235                   293.51041638332225
0.0035                    0.0245                   293.0779210655753
0.0035                    0.0255                   293.1501274820067
0.0035                    0.0265                   293.2254269956094
0.0035                    0.0275                   293.3930520342251
0.0035                    0.0285                   293.6673177844058
0.0035                    0.0295                   293.9240966136921
0.0035                    0.0305                   294.14932873672285
0.0035                    0.0315                   294.36267799559454
0.0045                    -0.0315                  351.64582863221847
0.0045                    -0.0305                  349.3776767327359
0.0045                    -0.0295                  347.1627508701618
0.0045                    -0.0285                  345.20797595517934
0.0045                    -0.0275                  343.3044975998233
0.0045                    -0.0265                  341.40101924446736
0.0045                    -0.0255                  340.7052676735288
0.0045                    -0.0245                  340.41694528110486
0.0045                    -0.0235                  340.12862288868087
0.0045                    -0.0225                  339.96534537245026
0.0045                    -0.0215                  339.9168763127923
0.0045                    -0.0205                  339.8325360155532
0.0045                    -0.0195                  339.522739449649
0.0045                    -0.0185                  339.21953074332816
0.0045                    -0.0175                  338.8967216780892
0.0045                    -0.0165                  337.67829536690476
0.0045                    -0.0155                  336.4441947139331
0.0045                    -0.0145                  335.43944676300686
0.0045                    -0.0135                  334.2985258701148
0.0045                    -0.0125                  333.1576049772227
0.0045                    -0.0115                  332.263544776854
0.0045                    -0.0105                  331.5714262851124
0.0045                    -0.0095                  330.8793077933707
0.0045                    -0.0085                  330.37573623766895
0.0045                    -0.0075                  330.08518796071706
0.0045                    -0.0065                  329.7946396837652
0.0045                    -0.0055                  329.619018109901
0.0045                    -0.0045                  329.54573906560495
0.0045                    -0.0035                  329.47246002130896
0.0045                    -0.0025                  329.4837998925836
0.0045                    -0.0015                  329.53391865786233
0.0045                    -5.0E-4                  329.5840374231411
0.0045                    5.0E-4                   329.7143778367828
0.0045                    0.0015                   329.84626466802604
0.0045                    0.0025                   329.9781514992693
0.0045                    0.0035                   330.20544053202633
0.0045                    0.0045                   330.41910318059684
0.0045                    0.0055                   330.6406121162949
0.0045                    0.0065                   330.9580822972096
0.0045                    0.0075                   331.27818213401116
0.0045                    0.0085                   331.5536448863201
0.0045                    0.0095                   331.87172847522874
0.0045                    0.0105                   332.2091943637216
0.0045                    0.0115                   332.30235525477985
0.0045                    0.0125                   332.2184760825606
0.0045                    0.0135                   332.13459691034126
0.0045                    0.0145                   331.33378300327047
0.0045                    0.0155                   329.92088869511053
0.0045                    0.0165                   328.5079943869505
0.0045                    0.0175                   324.07753344878705
0.0045                    0.0185                   316.2768952220966
0.0045                    0.0195                   308.47625699540606
0.0045                    0.0205                   302.94143337401783
0.0045                    0.0215                   298.40556538595746
0.0045                    0.0225                   294.24568556337715
0.0045                    0.0235                   293.7259297605598
0.0045                    0.0245                   293.2061739577424
0.0045                    0.0255                   293.1342114614523
0.0045                    0.0265                   293.22395551814157
0.0045                    0.0275                   293.3733825568959
0.0045                    0.0285                   293.65439479906007
0.0045                    0.0295                   293.934643056014
0.0045                    0.0305                   294.1637472860694
0.0045                    0.0315                   294.37731973096714
0.0055                    -0.0315                  351.0146610189578
0.0055                    -0.0305                  349.05339585516816
0.0055                    -0.0295                  347.1050202287769
0.0055                    -0.0285                  344.8038076481348
0.0055                    -0.0275                  342.8732840535545
0.0055                    -0.0265                  341.56389809374593
0.0055                    -0.0255                  341.18660935707067
0.0055                    -0.0245                  340.863885991888
0.0055                    -0.0235                  340.7599614465154
0.0055                    -0.0225                  340.93745799397027
0.0055                    -0.0215                  340.88696116216255
0.0055                    -0.0205                  340.46033745458675
0.0055                    -0.0195                  339.91833479678945
0.0055                    -0.0185                  339.6172288475776
0.0055                    -0.0175                  338.143684411733
0.0055                    -0.0165                  336.5589043021433
0.0055                    -0.0155                  335.33614761549217
0.0055                    -0.0145                  333.9994006948619
0.0055                    -0.0135                  332.79694685700576
0.0055                    -0.0125                  331.6629056404547
0.0055                    -0.0115                  331.0097740992319
0.0055                    -0.0105                  330.34878074449273
0.0055                    -0.0095                  329.65678937864317
0.0055                    -0.0085                  329.49186630502226
0.0055                    -0.0075                  329.21431582109574
0.0055                    -0.0065                  328.92359288509556
0.0055                    -0.0055                  328.96170781356193
0.0055                    -0.0045                  328.8881364308895
0.0055                    -0.0035                  328.8262126429056
0.0055                    -0.0025                  328.90713551437256
0.0055                    -0.0015                  328.95702082005846
0.0055                    -5.0E-4                  329.0146565518733
0.0055                    5.0E-4                   329.1185694415337
0.0055                    0.0015                   329.25361636609966
0.0055                    0.0025                   329.3786014894156
0.0055                    0.0035                   329.522273016187
0.0055                    0.0045                   329.73967053177824
0.0055                    0.0055                   329.9192049371538
0.0055                    0.0065                   330.13789062794376
0.0055                    0.0075                   330.4607112346043
0.0055                    0.0085                   330.7008037215672
0.0055                    0.0095                   330.96706698611126
0.0055                    0.0105                   331.3052958607575
0.0055                    0.0115                   331.577495132708
0.0055                    0.0125                   331.59210919618374
0.0055                    0.0135                   331.50792635145893
0.0055                    0.0145                   331.3591077681491
0.0055                    0.0155                   330.1669501569356
0.0055                    0.0165                   328.7346564603746
0.0055                    0.0175                   325.22109695310445
0.0055                    0.0185                   317.73476977048324
0.0055                    0.0195                   310.022686536818
0.0055                    0.0205                   302.82411463468804
0.0055                    0.0215                   298.27028830222844
0.0055                    0.0225                   294.9204989774705
0.0055                    0.0235                   293.6979662825748
0.0055                    0.0245                   293.2497273958526
0.0055                    0.0255                   293.1382777115602
0.0055                    0.0265                   293.2228519016088
0.0055                    0.0275                   293.3537130795667
0.0055                    0.0285                   293.6200478444202
0.0055                    0.0295                   293.8822281440936
0.0055                    0.0305                   294.13806183012275
0.0055                    0.0315                   294.39196146633975
0.0065                    -0.0315                  350.9500741730203
0.0065                    -0.0305                  349.00385559748946
0.0065                    -0.0295                  347.02742683047194
0.0065                    -0.0285                  344.7262142498299
0.0065                    -0.0275                  342.4778840182996
0.0065                    -0.0265                  342.0844849837103
0.0065                    -0.0255                  341.6910859491209
0.0065                    -0.0245                  341.350286475943
0.0065                    -0.0235                  341.60946004156574
0.0065                    -0.0225                  341.92409052063806
0.0065                    -0.0215                  341.86456271069716
0.0065                    -0.0205                  341.0678727023058
0.0065                    -0.0195                  340.2711826939145
0.0065                    -0.0185                  339.4384564948393
0.0065                    -0.0175                  337.2421337705374
0.0065                    -0.0165                  335.06956603617505
0.0065                    -0.0155                  333.79320802903385
0.0065                    -0.0145                  332.4062813080844
0.0065                    -0.0135                  331.05003410051404
0.0065                    -0.0125                  330.1563637470871
0.0065                    -0.0115                  329.6510311182303
0.0065                    -0.0105                  329.10368851668244
0.0065                    -0.0095                  328.70104847117364
0.0065                    -0.0085                  328.6217808264546
0.0065                    -0.0075                  328.4731071308203
0.0065                    -0.0065                  328.38192250148444
0.0065                    -0.0055                  328.438172560961
0.0065                    -0.0045                  328.4377416620356
0.0065                    -0.0035                  328.4735967178959
0.0065                    -0.0025                  328.56018958002096
0.0065                    -0.0015                  328.62674386565556
0.0065                    -5.0E-4                  328.71054015606046
0.0065                    5.0E-4                   328.8033472696893
0.0065                    0.0015                   328.92374008725164
0.0065                    0.0025                   329.027999785397
0.0065                    0.0035                   329.12896483669266
0.0065                    0.0045                   329.315737375317
0.0065                    0.0055                   329.4415976928583
0.0065                    0.0065                   329.5674580103997
0.0065                    0.0075                   329.8398126208193
0.0065                    0.0085                   330.00754884513736
0.0065                    0.0095                   330.1752850694554
0.0065                    0.0105                   330.4805652218353
0.0065                    0.0115                   330.7174766822276