% Model:              SIMBench260525.mph
% Version:            COMSOL 6.2.0.339
% Date:               May 27 2026, 17:23
% Dimension:          2
% Nodes:              4096
% Expressions:        1
% Description:        温度
% Length unit:        m
% x                       y                        T (K)
5.0E-4                    -0.0315                  326.8110285802739
5.0E-4                    -0.0305                  325.5408548633572
5.0E-4                    -0.0295                  324.27322108948306
5.0E-4                    -0.0285                  322.94339977391223
5.0E-4                    -0.0275                  321.72094059267704
5.0E-4                    -0.0265                  320.60948968151587
5.0E-4                    -0.0255                  320.1351110668405
5.0E-4                    -0.0245                  319.6208751082081
5.0E-4                    -0.0235                  319.1620422011001
5.0E-4                    -0.0225                  318.8357861918437
5.0E-4                    -0.0215                  318.5105989458117
5.0E-4                    -0.0205                  318.15842796210563
5.0E-4                    -0.0195                  317.9015563974675
5.0E-4                    -0.0185                  317.670630904032
5.0E-4                    -0.0175                  317.23247922629224
5.0E-4                    -0.0165                  317.0304402776352
5.0E-4                    -0.0155                  316.8333476235498
5.0E-4                    -0.0145                  316.4450673547767
5.0E-4                    -0.0135                  316.13428769272866
5.0E-4                    -0.0125                  315.8235080306806
5.0E-4                    -0.0115                  315.6084470834692
5.0E-4                    -0.0105                  315.45244959776426
5.0E-4                    -0.0095                  315.3018325759192
5.0E-4                    -0.0085                  315.21630514390495
5.0E-4                    -0.0075                  315.1251444038104
5.0E-4                    -0.0065                  315.0567412366925
5.0E-4                    -0.0055                  315.0202271611331
5.0E-4                    -0.0045                  314.9556426717744
5.0E-4                    -0.0035                  314.94217435834577
5.0E-4                    -0.0025                  314.9117501091449
5.0E-4                    -0.0015                  314.8529374579073
5.0E-4                    -5.0E-4                  314.88130188903085
5.0E-4                    5.0E-4                   314.819515878953
5.0E-4                    0.0015                   314.74644878290417
5.0E-4                    0.0025                   314.7708023930552
5.0E-4                    0.0035                   314.5636636305575
5.0E-4                    0.0045                   314.3565248680599
5.0E-4                    0.0055                   314.24399369432973
5.0E-4                    0.0065                   313.7565221517421
5.0E-4                    0.0075                   313.274209878463
5.0E-4                    0.0085                   312.82757832078374
5.0E-4                    0.0095                   311.80796393720436
5.0E-4                    0.0105                   310.89976578884585
5.0E-4                    0.0115                   309.32138213586643
5.0E-4                    0.0125                   306.8157199739067
5.0E-4                    0.0135                   304.6275704585299
5.0E-4                    0.0145                   301.9446393390285
5.0E-4                    0.0155                   298.82727806977493
5.0E-4                    0.0165                   295.31216076586617
5.0E-4                    0.0175                   294.6589658311101
5.0E-4                    0.0185                   294.38991175595476
5.0E-4                    0.0195                   293.74865095255444
5.0E-4                    0.0205                   293.80695072982684
5.0E-4                    0.0215                   293.86525050709923
5.0E-4                    0.0225                   293.4340816466878
5.0E-4                    0.0235                   293.2376839379507
5.0E-4                    0.0245                   293.1483207063708
5.0E-4                    0.0255                   293.1580517412084
5.0E-4                    0.0265                   293.17268403803325
5.0E-4                    0.0275                   293.15929250528893
5.0E-4                    0.0285                   293.14590097254455
5.0E-4                    0.0295                   293.1442328002247
5.0E-4                    0.0305                   293.11261805749234
5.0E-4                    0.0315                   293.0810033147599
0.0015                    -0.0315                  326.27781403832523
0.0015                    -0.0305                  324.8392045205568
0.0015                    -0.0295                  323.5159158172746
0.0015                    -0.0285                  322.1184581685756
0.0015                    -0.0275                  320.8278550838835
0.0015                    -0.0265                  320.22977206405994
0.0015                    -0.0255                  319.7981236931961
0.0015                    -0.0245                  319.2904451726464
0.0015                    -0.0235                  318.9521922978669
0.0015                    -0.0225                  318.6239747651243
0.0015                    -0.0215                  318.2943725936766
0.0015                    -0.0205                  317.90859411995604
0.0015                    -0.0195                  317.5590796286274
0.0015                    -0.0185                  317.25084678339925
0.0015                    -0.0175                  316.67515286258777
0.0015                    -0.0165                  316.24403111773563
0.0015                    -0.0155                  315.93762352497157
0.0015                    -0.0145                  315.4558696642526
0.0015                    -0.0135                  315.0672232579469
0.0015                    -0.0125                  314.7989717948997
0.0015                    -0.0115                  314.5676279678734
0.0015                    -0.0105                  314.38945469497696
0.0015                    -0.0095                  314.2852773008298
0.0015                    -0.0085                  314.2046015150788
0.0015                    -0.0075                  314.1148891875608
0.0015                    -0.0065                  314.10787318343
0.0015                    -0.0055                  314.1158241685513
0.0015                    -0.0045                  314.05123967919263
0.0015                    -0.0035                  314.1188910503933
0.0015                    -0.0025                  314.16544492963556
0.0015                    -0.0015                  314.129828140245
0.0015                    -5.0E-4                  314.23274307184647
0.0015                    5.0E-4                   314.27687914154467
0.0015                    0.0015                   314.2584811289278
0.0015                    0.0025                   314.36795485215566
0.0015                    0.0035                   314.3217143580086
0.0015                    0.0045                   314.2398133902574
0.0015                    0.0055                   314.3068800290893
0.0015                    0.0065                   314.01362955051184
0.0015                    0.0075                   313.79541467383615
0.0015                    0.0085                   313.7462884314062
0.0015                    0.0095                   312.9132728289753
0.0015                    0.0105                   312.40103579129436
0.0015                    0.0115                   312.0393102406107
0.0015                    0.0125                   309.6073531492432
0.0015                    0.0135                   308.0031632391694
0.0015                    0.0145                   306.27235279689313
0.0015                    0.0155                   303.0836544395043
0.0015                    0.0165                   299.1464205048363
0.0015                    0.0175                   296.3735091657951
0.0015                    0.0185                   295.8617147169299
0.0015                    0.0195                   294.8739036869884
0.0015                    0.0205                   294.5531016563607
0.0015                    0.0215                   294.2002187055747
0.0015                    0.0225                   293.6803990417983
0.0015                    0.0235                   293.25959507512636
0.0015                    0.0245                   293.16049825212497
0.0015                    0.0255                   293.1602657930086
0.0015                    0.0265                   293.1920202338385
0.0015                    0.0275                   293.20439514259954
0.0015                    0.0285                   293.1961494588519
0.0015                    0.0295                   293.21401264389095
0.0015                    0.0305                   293.1993906256401
0.0015                    0.0315                   293.1784564840955
0.0025                    -0.0315                  325.7445994963764
0.0025                    -0.0305                  324.33525283536324
0.0025                    -0.0295                  322.92537400882077
0.0025                    -0.0285                  321.49794268062374
0.0025                    -0.0275                  320.4839472021225
0.0025                    -0.0265                  320.01565678558234
0.0025                    -0.0255                  319.55113327601293
0.0025                    -0.0245                  319.1904009927442
0.0025                    -0.0235                  318.8498560163571
0.0025                    -0.0225                  318.50931103997
0.0025                    -0.0215                  318.04393250096075
0.0025                    -0.0205                  317.65813562751896
0.0025                    -0.0195                  317.2723387540771
0.0025                    -0.0185                  316.62669492534485
0.0025                    -0.0175                  316.04897688603796
0.0025                    -0.0165                  315.4714474621149
0.0025                    -0.0155                  314.9734725281826
0.0025                    -0.0145                  314.4917183945524
0.0025                    -0.0135                  314.0562558399095
0.0025                    -0.0125                  313.82651823991426
0.0025                    -0.0115                  313.59415766132116
0.0025                    -0.0105                  313.4176700951045
0.0025                    -0.0095                  313.3356517761363
0.0025                    -0.0085                  313.25363345716806
0.0025                    -0.0075                  313.21586541679363
0.0025                    -0.0065                  313.2241772246215
0.0025                    -0.0055                  313.2324890324493
0.0025                    -0.0045                  313.2735073989456
0.0025                    -0.0035                  313.34221253585497
0.0025                    -0.0025                  313.41091767276436
0.0025                    -0.0015                  313.4971251367772
0.0025                    -5.0E-4                  313.59996424909104
0.0025                    5.0E-4                   313.7028033614049
0.0025                    0.0015                   313.8045910990932
0.0025                    0.0025                   313.91410424310703
0.0025                    0.0035                   314.023491743833
0.0025                    0.0045                   314.0950841798869
0.0025                    0.0055                   314.16224428963307
0.0025                    0.0065                   314.23737658897505
0.0025                    0.0075                   314.18867249716754
0.0025                    0.0085                   314.13996840536004
0.0025                    0.0095                   314.05936889214854
0.0025                    0.0105                   313.69764334146487
0.0025                    0.0115                   313.3359177907812
0.0025                    0.0125                   312.6135592074966
0.0025                    0.0135                   311.0781451149337
0.0025                    0.0145                   309.54273102237073
0.0025                    0.0155                   306.9212973313907
0.0025                    0.0165                   302.98463708449196
0.0025                    0.0175                   299.04797683759335
0.0025                    0.0185                   297.6024940072326
0.0025                    0.0195                   296.5974046860444
0.0025                    0.0205                   295.14649428553486
0.0025                    0.0215                   294.4591359108248
0.0025                    0.0225                   293.9267164369088
0.0025                    0.0235                   293.4319473410525
0.0025                    0.0245                   293.18131551681336
0.0025                    0.0255                   293.1624798448088
0.0025                    0.0265                   293.2006124540103
0.0025                    0.0275                   293.2452192896717
0.0025                    0.0285                   293.25510090142143
0.0025                    0.0295                   293.28514249779835
0.0025                    0.0305                   293.29661882850326
0.0025                    0.0315                   293.2763807918085
0.0035                    -0.0315                  325.3584532928996
0.0035                    -0.0305                  323.87957569867547
0.0035                    -0.0295                  322.47694485343015
0.0035                    -0.0285                  321.24997737335866
0.0035                    -0.0275                  320.68512355672
0.0035                    -0.0265                  320.1596377080706
0.0035                    -0.0255                  319.74468763425494
0.0035                    -0.0245                  319.51881492260304
0.0035                    -0.0235                  319.2101952224023
0.0035                    -0.0225                  318.709180518048
0.0035                    -0.0215                  317.8478235546505
0.0035                    -0.0205                  317.40456008789306
0.0035                    -0.0195                  316.71952089100853
0.0035                    -0.0185                  315.69205488587215
0.0035                    -0.0175                  315.11433684656527
0.0035                    -0.0165                  314.55105639058223
0.0035                    -0.0155                  314.009365765558
0.0035                    -0.0145                  313.52761163192787
0.0035                    -0.0135                  313.2773821571588
0.0035                    -0.0125                  313.07532410504035
0.0035                    -0.0115                  312.84296352644725
0.0035                    -0.0105                  312.7961867166224
0.0035                    -0.0095                  312.73894504055863
0.0035                    -0.0085                  312.66407345827315
0.0035                    -0.0075                  312.69224794306734
0.0035                    -0.0065                  312.70731651628194
0.0035                    -0.0055                  312.7243217759044
0.0035                    -0.0045                  312.7745137011847
0.0035                    -0.0035                  312.8398159984541
0.0035                    -0.0025                  312.90418274785185
0.0035                    -0.0015                  312.9606885039162
0.0035                    -5.0E-4                  313.06227242834194
0.0035                    5.0E-4                   313.1474561693916
0.0035                    0.0015                   313.2209280095333
0.0035                    0.0025                   313.33044115354716
0.0035                    0.0035                   313.4385561008604
0.0035                    0.0045                   313.5343732203204
0.0035                    0.0055                   313.60153333006656
0.0035                    0.0065                   313.734364493496
0.0035                    0.0075                   313.7940833648569
0.0035                    0.0085                   313.7453792730495
0.0035                    0.0095                   313.8869749609619
0.0035                    0.0105                   313.725705883428
0.0035                    0.0115                   313.41872770206186
0.0035                    0.0125                   313.4583573878035
0.0035                    0.0135                   312.28987137860184
0.0035                    0.0145                   311.0803429414032
0.0035                    0.0155                   310.63006648828366
0.0035                    0.0165                   306.8407500808092
0.0035                    0.0175                   303.61443680985985
0.0035                    0.0185                   301.2963952271862
0.0035                    0.0195                   300.291305905998
0.0035                    0.0205                   297.0378461900917
0.0035                    0.0215                   295.4493189578068
0.0035                    0.0225                   294.3283319870475
0.0035                    0.0235                   293.47072732809625
0.0035                    0.0245                   293.2496600986676
0.0035                    0.0255                   293.1932524425143
0.0035                    0.0265                   293.2109410099954
0.0035                    0.0275                   293.2576423116344
0.0035                    0.0285                   293.34295341219075
0.0035                    0.0295                   293.38901507377454
0.0035                    0.0305                   293.3968895877723
0.0035                    0.0315                   293.37380123775506
0.0045                    -0.0315                  325.1766438459616
0.0045                    -0.0305                  323.6168740746698
0.0045                    -0.0295                  322.07109210485226
0.0045                    -0.0285                  321.4456644271293
0.0045                    -0.0275                  320.88320570773413
0.0045                    -0.0265                  320.320746988339
0.0045                    -0.0255                  320.0360815681908
0.0045                    -0.0245                  319.8102088565389
0.0045                    -0.0235                  319.57053442844756
0.0045                    -0.0225                  318.7515932471847
0.0045                    -0.0215                  317.8902362837871
0.0045                    -0.0205                  317.10450467318145
0.0045                    -0.0195                  316.06591483099504
0.0045                    -0.0185                  315.02732498880863
0.0045                    -0.0175                  314.1855256803746
0.0045                    -0.0165                  313.63066531904957
0.0045                    -0.0155                  313.0758049577245
0.0045                    -0.0145                  312.684626638507
0.0045                    -0.0135                  312.49850847440814
0.0045                    -0.0125                  312.31239031030935
0.0045                    -0.0115                  312.2014165993062
0.0045                    -0.0105                  312.16941482391246
0.0045                    -0.0095                  312.1374130485188
0.0045                    -0.0085                  312.13527278922356
0.0045                    -0.0075                  312.1634472740178
0.0045                    -0.0065                  312.1904558079423
0.0045                    -0.0055                  312.23306169176567
0.0045                    -0.0045                  312.28325361704594
0.0045                    -0.0035                  312.33741946105334
0.0045                    -0.0025                  312.3943765504738
0.0045                    -0.0015                  312.4508823065381
0.0045                    -5.0E-4                  312.5206538638745
0.0045                    5.0E-4                   312.5887346774551
0.0045                    0.0015                   312.65681549103573
0.0045                    0.0025                   312.74621466110324
0.0045                    0.0035                   312.8536204578877
0.0045                    0.0045                   312.9610262546722
0.0045                    0.0055                   313.07478419743325
0.0045                    0.0065                   313.2219662151099
0.0045                    0.0075                   313.3691482327864
0.0045                    0.0085                   313.46416549351636
0.0045                    0.0095                   313.61002274291513
0.0045                    0.0105                   313.7537684253912
0.0045                    0.0115                   313.6896064297821
0.0045                    0.0125                   313.7292361155238
0.0045                    0.0135                   313.50159764227004
0.0045                    0.0145                   312.9542996077613
0.0045                    0.0155                   312.50402315464174
0.0045                    0.0165                   310.8960226440164
0.0045                    0.0175                   308.1989831424573
0.0045                    0.0185                   305.501943640898
0.0045                    0.0195                   302.92173645417176
0.0045                    0.0205                   299.3933056325511
0.0045                    0.0215                   296.4493284688328
0.0045                    0.0225                   295.1156416610563
0.0045                    0.0235                   293.74347637605814
0.0045                    0.0245                   293.291814593709
0.0045                    0.0255                   293.23150205150677
0.0045                    0.0265                   293.224178785313
0.0045                    0.0275                   293.2733908395456
0.0045                    0.0285                   293.35988861768897
0.0045                    0.0295                   293.4568003419507
0.0045                    0.0305                   293.49188808949407
0.0045                    0.0315                   293.4626530691629
0.0055                    -0.0315                  324.99483439902366
0.0055                    -0.0305                  323.6309129510131
0.0055                    -0.0295                  322.2989209393052
0.0055                    -0.0285                  321.54335998856135
0.0055                    -0.0275                  320.97837743309435
0.0055                    -0.0265                  320.46385805325855
0.0055                    -0.0255                  320.08871320415903
0.0055                    -0.0245                  319.8779585963861
0.0055                    -0.0235                  319.11583914221234
0.0055                    -0.0225                  318.0163007727571
0.0055                    -0.0215                  317.1496509955526
0.0055                    -0.0205                  316.02167741740533
0.0055                    -0.0195                  314.90527366108205
0.0055                    -0.0185                  313.8622945387797
0.0055                    -0.0175                  313.39496174413347
0.0055                    -0.0165                  312.8697644758325
0.0055                    -0.0155                  312.33708554950556
0.0055                    -0.0145                  312.2901366234544
0.0055                    -0.0135                  312.10205771602466
0.0055                    -0.0125                  311.95790422189134
0.0055                    -0.0115                  312.0077362053121
0.0055                    -0.0105                  311.9721550308155
0.0055                    -0.0095                  311.97581930365925
0.0055                    -0.0085                  312.0481979385632
0.0055                    -0.0075                  312.0734962629354
0.0055                    -0.0065                  312.121990221419
0.0055                    -0.0055                  312.1866176456405
0.0055                    -0.0045                  312.23478916923074
0.0055                    -0.0035                  312.2844386880214
0.0055                    -0.0025                  312.3380125645334
0.0055                    -0.0015                  312.3933709463598
0.0055                    -5.0E-4                  312.4348117717731
0.0055                    5.0E-4                   312.495107958402
0.0055                    0.0015                   312.56268603416663
0.0055                    0.0025                   312.598990958199
0.0055                    0.0035                   312.70066639823625
0.0055                    0.0045                   312.8060819214655
0.0055                    0.0055                   312.85763640140993
0.0055                    0.0065                   313.0047461729499
0.0055                    0.0075                   313.1367572618878
0.0055                    0.0085                   313.2225485272739
0.0055                    0.0095                   313.3684000802358
0.0055                    0.0105                   313.50249978829004
0.0055                    0.0115                   313.5846362191628
0.0055                    0.0125                   313.6236992522578
0.0055                    0.0135                   313.70417212856427
0.0055                    0.0145                   313.48294448550166
0.0055                    0.0155                   313.02228918243435
0.0055                    0.0165                   312.82177309604344
0.0055                    0.0175                   310.67306144334697
0.0055                    0.0185                   308.03603105155827
0.0055                    0.0195                   304.2979628691895
0.0055                    0.0205                   300.65918785161
0.0055                    0.0215                   297.2348090468238
0.0055                    0.0225                   294.90324020980256
0.0055                    0.0235                   293.8245046009886
0.0055                    0.0245                   293.2680258737595
0.0055                    0.0255                   293.208153299289
0.0055                    0.0265                   293.2390247212615
0.0055                    0.0275                   293.28913936745664
0.0055                    0.0285                   293.3750685743861
0.0055                    0.0295                   293.4672030043681
0.0055                    0.0305                   293.52093540253566
0.0055                    0.0315                   293.54955724474024
0.0065                    -0.0315                  325.1876610701994
0.0065                    -0.0305                  323.84564428606814
0.0065                    -0.0295                  322.5639616198356
0.0065                    -0.0285                  321.8084006690918
0.0065                    -0.0275                  321.08305490297533
0.0065                    -0.0265                  320.62523277579874
0.0065                    -0.0255                  320.16741064862214
0.0065                    -0.0245                  319.8620477444251
0.0065                    -0.0235                  318.5225211244863
0.0065                    -0.0225                  317.18299450454737
0.0065                    -0.0215                  316.14792063640425
0.0065                    -0.0205                  314.9026739893799
0.0065                    -0.0195                  313.6610052857657
0.0065                    -0.0185                  312.95010684810217
0.0065                    -0.0175                  312.56012632601846
0.0065                    -0.0165                  312.13368883904616
0.0065                    -0.0155                  311.92495041430374
0.0065                    -0.0145                  311.8780014882525
0.0065                    -0.0135                  311.774435745585
0.0065                    -0.0125                  311.791558868795
0.0065                    -0.0115                  311.8565404793426
0.0065                    -0.0105                  311.86563209669737
0.0065                    -0.0095                  311.94977156819664
0.0065                    -0.0085                  312.0427701419495
0.0065                    -0.0075                  312.09083374636697
0.0065                    -0.0065                  312.16937086822423
0.0065                    -0.0055                  312.24790799008144
0.0065                    -0.0045                  312.3008842438994
0.0065                    -0.0035                  312.3516297826259
0.0065                    -0.0025                  312.4024290313101
0.0065                    -0.0015                  312.4514397514488
0.0065                    -5.0E-4                  312.4874802123069
0.0065                    5.0E-4                   312.5287911608933
0.0065                    0.0015                   312.57922825679776
0.0065                    0.0025                   312.61096839649827
0.0065                    0.0035                   312.6671655972788
0.0065                    0.0045                   312.73361208801583
0.0065                    0.0055                   312.7764013614278
0.0065                    0.0065                   312.8694722315311
0.0065                    0.0075                   312.95269962983474
0.0065                    0.0085                   313.01906443789875
0.0065                    0.0095                   313.1366121443047
0.0065                    0.0105                   313.25018809441485
0.0065                    0.0115                   313.3621231241264