% Model:              SIMBench260525.mph
% Version:            COMSOL 6.2.0.339
% Date:               May 27 2026, 18:12
% Dimension:          2
% Nodes:              4096
% Expressions:        1
% Description:        温度
% Length unit:        m
% x                       y                        T (K)
5.0E-4                    -0.0315                  443.98180572828727
5.0E-4                    -0.0305                  441.9898613154827
5.0E-4                    -0.0295                  439.9891100946075
5.0E-4                    -0.0285                  436.11349143891397
5.0E-4                    -0.0275                  431.76696885632623
5.0E-4                    -0.0265                  427.41632368881955
5.0E-4                    -0.0255                  422.9427186824223
5.0E-4                    -0.0245                  418.9166122151604
5.0E-4                    -0.0235                  414.9965213597394
5.0E-4                    -0.0225                  412.1905036238402
5.0E-4                    -0.0215                  409.5204416072441
5.0E-4                    -0.0205                  407.0297325523207
5.0E-4                    -0.0195                  405.2777363242542
5.0E-4                    -0.0185                  403.47376605448807
5.0E-4                    -0.0175                  401.80282596239005
5.0E-4                    -0.0165                  400.3361626083704
5.0E-4                    -0.0155                  398.7878111467513
5.0E-4                    -0.0145                  397.2444978833533
5.0E-4                    -0.0135                  395.77819029541354
5.0E-4                    -0.0125                  394.3356717767898
5.0E-4                    -0.0115                  392.61128985534384
5.0E-4                    -0.0105                  391.11961695348816
5.0E-4                    -0.0095                  389.7452669561295
5.0E-4                    -0.0085                  387.5070102493034
5.0E-4                    -0.0075                  384.07098556574397
5.0E-4                    -0.0065                  380.5963313981498
5.0E-4                    -0.0055                  376.06759172169006
5.0E-4                    -0.0045                  360.20698059841664
5.0E-4                    -0.0035                  344.34636947514326
5.0E-4                    -0.0025                  331.5144633720065
5.0E-4                    -0.0015                  321.5222169622566
5.0E-4                    -5.0E-4                  311.5299705525066
5.0E-4                    5.0E-4                   301.689766185546
5.0E-4                    0.0015                   297.7379869251216
5.0E-4                    0.0025                   294.0618245821435
5.0E-4                    0.0035                   293.1941532850926
5.0E-4                    0.0045                   293.13234344764044
5.0E-4                    0.0055                   293.12415064705857
5.0E-4                    0.0065                   293.14242289778275
5.0E-4                    0.0075                   293.1558530075244
5.0E-4                    0.0085                   293.1592469426527
5.0E-4                    0.0095                   293.1491528478882
5.0E-4                    0.0105                   293.1370733252323
5.0E-4                    0.0115                   293.1747381678341
5.0E-4                    0.0125                   293.2652656615931
5.0E-4                    0.0135                   294.2775355475126
5.0E-4                    0.0145                   298.2085508858411
5.0E-4                    0.0155                   302.3794825583907
5.0E-4                    0.0165                   313.16514246118925
5.0E-4                    0.0175                   327.0017352939691
5.0E-4                    0.0185                   340.015641757499
5.0E-4                    0.0195                   348.05633967980356
5.0E-4                    0.0205                   356.2953528977419
5.0E-4                    0.0215                   362.3240510043609
5.0E-4                    0.0225                   365.37787193896634
5.0E-4                    0.0235                   368.37092029910457
5.0E-4                    0.0245                   371.46294503078747
5.0E-4                    0.0255                   374.2140116136204
5.0E-4                    0.0265                   377.04788268031615
5.0E-4                    0.0275                   379.73216283228237
5.0E-4                    0.0285                   381.9257703631182
5.0E-4                    0.0295                   384.22970840803544
5.0E-4                    0.0305                   385.3727985393784
5.0E-4                    0.0315                   386.463677817267
0.0015                    -0.0315                  443.39851602907754
0.0015                    -0.0305                  441.88829743174966
0.0015                    -0.0295                  439.1907433921487
0.0015                    -0.0285                  434.99594378018327
0.0015                    -0.0275                  430.71436577282896
0.0015                    -0.0265                  426.1096601549575
0.0015                    -0.0255                  421.3768564172556
0.0015                    -0.0245                  417.16466804785307
0.0015                    -0.0235                  413.9566812114222
0.0015                    -0.0225                  411.03073489383837
0.0015                    -0.0215                  408.3250010662238
0.0015                    -0.0205                  406.46141079622305
0.0015                    -0.0195                  404.77552927207876
0.0015                    -0.0185                  402.97718636025655
0.0015                    -0.0175                  401.6167554793624
0.0015                    -0.0165                  400.2922575581413
0.0015                    -0.0155                  398.7439060965224
0.0015                    -0.0145                  397.209399430162
0.0015                    -0.0135                  395.68716232635813
0.0015                    -0.0125                  394.1995760544266
0.0015                    -0.0115                  392.12807560674946
0.0015                    -0.0105                  390.21162495490324
0.0015                    -0.0095                  388.5803926405847
0.0015                    -0.0085                  385.6008416478592
0.0015                    -0.0075                  382.46712283003706
0.0015                    -0.0065                  378.6312427677365
0.0015                    -0.0055                  373.6982184286245
0.0015                    -0.0045                  364.37691945313827
0.0015                    -0.0035                  349.84816626905445
0.0015                    -0.0025                  337.9075709170081
0.0015                    -0.0015                  326.94817654618674
0.0015                    -5.0E-4                  316.02489849999995
0.0015                    5.0E-4                   303.92161995556273
0.0015                    0.0015                   297.4275634453048
0.0015                    0.0025                   294.9966025313963
0.0015                    0.0035                   293.1267260535033
0.0015                    0.0045                   293.06360879184615
0.0015                    0.0055                   293.1182962118497
0.0015                    0.0065                   293.16000518129295
0.0015                    0.0075                   293.1702027073758
0.0015                    0.0085                   293.17496102428674
0.0015                    0.0095                   293.17018698667795
0.0015                    0.0105                   293.14878511316834
0.0015                    0.0115                   293.1226365331909
0.0015                    0.0125                   293.2910759406311
0.0015                    0.0135                   295.39482499012286
0.0015                    0.0145                   298.1569467856564
0.0015                    0.0155                   305.34083636181174
0.0015                    0.0165                   317.3022820216792
0.0015                    0.0175                   330.51392649405204
0.0015                    0.0185                   339.86588110098927
0.0015                    0.0195                   347.66066767850555
0.0015                    0.0205                   355.4438458660416
0.0015                    0.0215                   359.05152635631316
0.0015                    0.0225                   362.43176981656427
0.0015                    0.0235                   365.5452085763171
0.0015                    0.0245                   368.80156530454275
0.0015                    0.0255                   371.7078440116128
0.0015                    0.0265                   374.882314982324
0.0015                    0.0275                   378.158354374026
0.0015                    0.0285                   380.4202324426202
0.0015                    0.0295                   382.83246226349775
0.0015                    0.0305                   384.4875014181026
0.0015                    0.0315                   385.0359302335089
0.0025                    -0.0315                  442.81522632986776
0.0025                    -0.0305                  441.01341600139597
0.0025                    -0.0295                  438.19108262843645
0.0025                    -0.0285                  433.9635171260494
0.0025                    -0.0275                  429.40610155299197
0.0025                    -0.0265                  424.65812558484015
0.0025                    -0.0255                  419.94336060158435
0.0025                    -0.0245                  415.944301652269
0.0025                    -0.0235                  413.00890113848334
0.0025                    -0.0225                  410.07350062469766
0.0025                    -0.0215                  407.8552351514261
0.0025                    -0.0205                  406.16641271602157
0.0025                    -0.0195                  404.47759028061705
0.0025                    -0.0185                  403.17916599694195
0.0025                    -0.0175                  401.8591899752471
0.0025                    -0.0165                  400.53921395355223
0.0025                    -0.0155                  399.1428446219746
0.0025                    -0.0145                  397.594454139251
0.0025                    -0.0135                  396.0460636565274
0.0025                    -0.0125                  393.9286821395197
0.0025                    -0.0115                  391.85597110321953
0.0025                    -0.0105                  389.78326006691935
0.0025                    -0.0095                  386.5273444864815
0.0025                    -0.0085                  383.5484169384601
0.0025                    -0.0075                  380.56948939043866
0.0025                    -0.0065                  375.66311611325733
0.0025                    -0.0055                  370.72729926774707
0.0025                    -0.0045                  365.79148242223687
0.0025                    -0.0035                  355.39365614973804
0.0025                    -0.0025                  343.4556289433666
0.0025                    -0.0015                  331.4915086672539
0.0025                    -5.0E-4                  319.3264346737624
0.0025                    5.0E-4                   307.17762438418134
0.0025                    0.0015                   297.5776426885078
0.0025                    0.0025                   295.70157984092504
0.0025                    0.0035                   293.82551699334226
0.0025                    0.0045                   293.05760930691116
0.0025                    0.0055                   293.1122937717812
0.0025                    0.0065                   293.16697823665135
0.0025                    0.0075                   293.1846864429822
0.0025                    0.0085                   293.1894679305382
0.0025                    0.0095                   293.1840569355234
0.0025                    0.0105                   293.15788375767266
0.0025                    0.0115                   293.1317105798219
0.0025                    0.0125                   294.1440831960448
0.0025                    0.0135                   296.2463275426184
0.0025                    0.0145                   298.3485718891921
0.0025                    0.0155                   308.9766440572425
0.0025                    0.0165                   320.92333579022636
0.0025                    0.0175                   331.7093099353119
0.0025                    0.0185                   339.49276372950214
0.0025                    0.0195                   347.2762175236924
0.0025                    0.0205                   351.6720333073839
0.0025                    0.0215                   355.2723904320406
0.0025                    0.0225                   358.8120068531836
0.0025                    0.0235                   361.97977428966544
0.0025                    0.0245                   365.1927682859573
0.0025                    0.0255                   368.66422802931606
0.0025                    0.0265                   371.8179207106455
0.0025                    0.0275                   374.9716133919751
0.0025                    0.0285                   378.2780789436602
0.0025                    0.0295                   380.4860613451537
0.0025                    0.0305                   382.31971105065355
0.0025                    0.0315                   383.6081826497508
0.0035                    -0.0315                  441.7497074466885
0.0035                    -0.0305                  439.61108849200014
0.0035                    -0.0295                  437.325909774343
0.0035                    -0.0285                  432.9366439849549
0.0035                    -0.0275                  427.82964424842856
0.0035                    -0.0265                  422.84266227689204
0.0035                    -0.0255                  418.25605558259423
0.0035                    -0.0245                  415.3550441017213
0.0035                    -0.0235                  412.43563553622016
0.0035                    -0.0225                  409.67629121485965
0.0035                    -0.0215                  408.7212590393239
0.0035                    -0.0205                  407.2897630699417
0.0035                    -0.0195                  405.8422916484849
0.0035                    -0.0185                  405.48345156948994
0.0035                    -0.0175                  404.4153360536975
0.0035                    -0.0165                  403.1255597702519
0.0035                    -0.0155                  401.92135891390484
0.0035                    -0.0145                  400.43372001579
0.0035                    -0.0135                  398.3263616524576
0.0035                    -0.0125                  395.07426128431473
0.0035                    -0.0115                  392.9012436339048
0.0035                    -0.0105                  389.31364953861
0.0035                    -0.0095                  383.5465552988246
0.0035                    -0.0085                  380.5676277508031
0.0035                    -0.0075                  375.9476413708959
0.0035                    -0.0065                  369.77014858310383
0.0035                    -0.0055                  364.8343317375937
0.0035                    -0.0045                  360.17349875777745
0.0035                    -0.0035                  354.3114458105438
0.0035                    -0.0025                  342.37341860417223
0.0035                    -0.0015                  330.16970539812394
0.0035                    -5.0E-4                  317.90777341710606
0.0035                    5.0E-4                   305.75896312752496
0.0035                    0.0015                   299.01218418186556
0.0035                    0.0025                   295.2434686532623
0.0035                    0.0035                   293.67462785347055
0.0035                    0.0045                   293.1302748719259
0.0035                    0.0055                   293.10560273039687
0.0035                    0.0065                   293.16090031602766
0.0035                    0.0075                   293.2078732742647
0.0035                    0.0085                   293.2126547618207
0.0035                    0.0095                   293.18514552047793
0.0035                    0.0105                   293.1557607772558
0.0035                    0.0115                   293.29535580268396
0.0035                    0.0125                   294.0980407329884
0.0035                    0.0135                   295.98778212825613
0.0035                    0.0145                   300.84186334620335
0.0035                    0.0155                   308.87407382861096
0.0035                    0.0165                   320.8207655615949
0.0035                    0.0175                   329.979710042424
0.0035                    0.0185                   338.2621021797221
0.0035                    0.0195                   344.16433353461184
0.0035                    0.0205                   346.14481695039785
0.0035                    0.0215                   349.65490383343314
0.0035                    0.0225                   352.7807715802332
0.0035                    0.0235                   355.8003506657887
0.0035                    0.0245                   359.08133124845074
0.0035                    0.0255                   363.2020584249338
0.0035                    0.0265                   366.7271363187955
0.0035                    0.0275                   370.3607584497202
0.0035                    0.0285                   374.5273708620722
0.0035                    0.0295                   377.39106471662717
0.0035                    0.0305                   379.0681913278379
0.0035                    0.0315                   380.5596862429469
0.0045                    -0.0315                  441.064428259216
0.0045                    -0.0305                  438.7102843255324
0.0045                    -0.0295                  436.3642668517314
0.0045                    -0.0285                  431.4124882357899
0.0045                    -0.0275                  426.297031293316
0.0045                    -0.0265                  421.18157435084214
0.0045                    -0.0255                  417.6627661527643
0.0045                    -0.0245                  414.7617546718914
0.0045                    -0.0235                  411.86074319101857
0.0045                    -0.0225                  410.3565226597279
0.0045                    -0.0215                  409.4014904841921
0.0045                    -0.0205                  408.4131134238619
0.0045                    -0.0195                  407.81507134641
0.0045                    -0.0185                  407.45623126741503
0.0045                    -0.0175                  406.97148213214786
0.0045                    -0.0165                  405.7555711904963
0.0045                    -0.0155                  404.55137033414917
0.0045                    -0.0145                  403.2729858923291
0.0045                    -0.0135                  400.08928665009853
0.0045                    -0.0125                  396.83718628195567
0.0045                    -0.0115                  393.81937465353667
0.0045                    -0.0105                  388.0369066738523
0.0045                    -0.0095                  382.254438694168
0.0045                    -0.0085                  377.1930927067052
0.0045                    -0.0075                  370.8869388597266
0.0045                    -0.0065                  364.5807850127479
0.0045                    -0.0055                  359.03915447479494
0.0045                    -0.0045                  354.574045735621
0.0045                    -0.0035                  350.10893699644714
0.0045                    -0.0025                  341.16922357527324
0.0045                    -0.0015                  328.84790212899395
0.0045                    -5.0E-4                  316.5265806827147
0.0045                    5.0E-4                   307.5157837483984
0.0045                    0.0015                   301.09950315133204
0.0045                    0.0025                   294.7853574655996
0.0045                    0.0035                   294.008660949152
0.0045                    0.0045                   293.4643079676074
0.0045                    0.0055                   293.0990546198031
0.0045                    0.0065                   293.1548731355139
0.0045                    0.0075                   293.2106916512248
0.0045                    0.0085                   293.21921436898594
0.0045                    0.0095                   293.18667556594244
0.0045                    0.0105                   293.15413676289904
0.0045                    0.0115                   293.77250364526407
0.0045                    0.0125                   294.57518857556846
0.0045                    0.0135                   296.3761268541366
0.0045                    0.0145                   303.4585495080122
0.0045                    0.0155                   310.54097216188774
0.0045                    0.0165                   319.17378695542834
0.0045                    0.0175                   328.11816778119294
0.0045                    0.0185                   337.0314406299421
0.0045                    0.0195                   339.40849835560726
0.0045                    0.0205                   341.38898177139333
0.0045                    0.0215                   343.8220633728522
0.0045                    0.0225                   346.7495363072828
0.0045                    0.0235                   349.6770092417135
0.0045                    0.0245                   353.4696770013954
0.0045                    0.0255                   357.5904041778785
0.0045                    0.0265                   361.7408639701205
0.0045                    0.0275                   365.9059815501123
0.0045                    0.0285                   370.0710991301041
0.0045                    0.0295                   374.22363375675474
0.0045                    0.0305                   375.70390716349675
0.0045                    0.0315                   377.1415163472571
0.0055                    -0.0315                  440.3791490717435
0.0055                    -0.0305                  438.1418740812161
0.0055                    -0.0295                  435.8584893031219
0.0055                    -0.0285                  430.7218153609797
0.0055                    -0.0275                  425.60578961873625
0.0055                    -0.0265                  421.1061010219212
0.0055                    -0.0255                  417.7581381142734
0.0055                    -0.0245                  414.801653953468
0.0055                    -0.0235                  412.632394945157
0.0055                    -0.0225                  412.0507135951601
0.0055                    -0.0215                  411.0993884521524
0.0055                    -0.0205                  410.92132165447146
0.0055                    -0.0195                  411.16599886732206
0.0055                    -0.0185                  410.8041811461965
0.0055                    -0.0175                  410.3863337686695
0.0055                    -0.0165                  409.5322555475235
0.0055                    -0.0155                  408.31845506739285
0.0055                    -0.0145                  405.25150577243784
0.0055                    -0.0135                  401.5712512792089
0.0055                    -0.0125                  398.32089205877975
0.0055                    -0.0115                  391.75466987081586
0.0055                    -0.0105                  385.23124725506426
0.0055                    -0.0095                  379.4528704325222
0.0055                    -0.0085                  371.7661255792992
0.0055                    -0.0075                  365.0364201699922
0.0055                    -0.0065                  358.7302472034722
0.0055                    -0.0055                  353.8905077222513
0.0055                    -0.0045                  349.41837462061306
0.0055                    -0.0035                  344.9555527026953
0.0055                    -0.0025                  340.37365766529985
0.0055                    -0.0015                  328.0570843646219
0.0055                    -5.0E-4                  316.0985932175449
0.0055                    5.0E-4                   306.730248120247
0.0055                    0.0015                   300.28218545033656
0.0055                    0.0025                   295.5267496158604
0.0055                    0.0035                   293.92457689671653
0.0055                    0.0045                   293.37638762569406
0.0055                    0.0055                   293.15166418421626
0.0055                    0.0065                   293.1657003989885
0.0055                    0.0075                   293.22042071637696
0.0055                    0.0085                   293.23237851317793
0.0055                    0.0095                   293.1998915799433
0.0055                    0.0105                   293.2790967849654
0.0055                    0.0115                   293.7432254199123
0.0055                    0.0125                   294.5455603026121
0.0055                    0.0135                   297.2099650236622
0.0055                    0.0145                   303.2051923764656
0.0055                    0.0155                   310.4849997423392
0.0055                    0.0165                   320.3711023352598
0.0055                    0.0175                   329.3466231064408
0.0055                    0.0185                   334.68298820165626
0.0055                    0.0195                   336.45268366954116
0.0055                    0.0205                   338.43479988310605
0.0055                    0.0215                   340.14170317001344
0.0055                    0.0225                   342.94253159621707
0.0055                    0.0235                   345.79322710738325
0.0055                    0.0245                   348.9285379460249
0.0055                    0.0255                   353.0983674329418
0.0055                    0.0265                   357.2074259386646
0.0055                    0.0275                   361.31894849826176
0.0055                    0.0285                   365.48406607825365
0.0055                    0.0295                   369.7668618588583
0.0055                    0.0305                   371.8636397120614
0.0055                    0.0315                   373.72334645156735
0.0065                    -0.0315                  439.9711982736221
0.0065                    -0.0305                  437.6935033051846
0.0065                    -0.0295                  435.18640661598545
0.0065                    -0.0285                  430.0497326738432
0.0065                    -0.0275                  424.9145479441565
0.0065                    -0.0265                  421.45745140143475
0.0065                    -0.0255                  418.00147235477687
0.0065                    -0.0245                  414.9107363721664
0.0065                    -0.0235                  414.21398707986447
0.0065                    -0.0225                  413.825990651291
0.0065                    -0.0215                  413.19616810667605
0.0065                    -0.0205                  413.9254201719972
0.0065                    -0.0195                  414.65467223731844
0.0065                    -0.0185                  414.44439876040894
0.0065                    -0.0175                  413.9792792923057
0.0065                    -0.0165                  413.51415982420247
0.0065                    -0.0155                  411.6671938242991
0.0065                    -0.0145                  407.3238043423885
0.0065                    -0.0135                  402.9804148604779
0.0065                    -0.0125                  398.2696375964243
0.0065                    -0.0115                  390.0137492150591
0.0065                    -0.0105                  381.9869562986768
0.0065                    -0.0095                  375.25784925277765
0.0065                    -0.0085                  366.9160662779216
0.0065                    -0.0075                  358.9545873012119
0.0065                    -0.0065                  353.4530736601122
0.0065                    -0.0055                  348.9093395399959
0.0065                    -0.0045                  344.3886631805167
0.0065                    -0.0035                  339.88767077915804
0.0065                    -0.0025                  335.3577064893985
0.0065                    -0.0015                  327.40280011352314
0.0065                    -5.0E-4                  316.7623675114871
0.0065                    5.0E-4                   306.59682882159694
0.0065                    0.0015                   298.9353762806347
0.0065                    0.0025                   296.462014822855
0.0065                    0.0035                   293.98865336507527
0.0065                    0.0045                   293.3493208361424
0.0065                    0.0055                   293.25285014683766
0.0065                    0.0065                   293.1793386399781
0.0065                    0.0075                   293.2090544789765
0.0065                    0.0085                   293.22208958739776
0.0065                    0.0095                   293.21483689038837
0.0065                    0.0105                   293.47552759299606
0.0065                    0.0115                   293.7581498612721