% Model:              SIMBench260525.mph
% Version:            COMSOL 6.2.0.339
% Date:               May 27 2026, 18:00
% Dimension:          2
% Nodes:              4096
% Expressions:        1
% Description:        温度
% Length unit:        m
% x                       y                        T (K)
5.0E-4                    -0.0315                  309.4203113012215
5.0E-4                    -0.0305                  308.23531637492584
5.0E-4                    -0.0295                  307.0505451202445
5.0E-4                    -0.0285                  306.0695460832125
5.0E-4                    -0.0275                  305.2542750471139
5.0E-4                    -0.0265                  304.4658076608262
5.0E-4                    -0.0255                  304.1386800960356
5.0E-4                    -0.0245                  303.7102798553536
5.0E-4                    -0.0235                  303.330407488314
5.0E-4                    -0.0225                  303.1616157857866
5.0E-4                    -0.0215                  302.9431999188174
5.0E-4                    -0.0205                  302.76394176881536
5.0E-4                    -0.0195                  302.6766031249265
5.0E-4                    -0.0185                  302.5788879009912
5.0E-4                    -0.0175                  302.4887578386995
5.0E-4                    -0.0165                  302.42637070847854
5.0E-4                    -0.0155                  302.3687968359837
5.0E-4                    -0.0145                  302.2931844337732
5.0E-4                    -0.0135                  302.2522386872654
5.0E-4                    -0.0125                  302.21974157727595
5.0E-4                    -0.0115                  302.14605670573565
5.0E-4                    -0.0105                  302.1220352181606
5.0E-4                    -0.0095                  302.10002833759734
5.0E-4                    -0.0085                  302.0441450664299
5.0E-4                    -0.0075                  302.02532217924454
5.0E-4                    -0.0065                  302.0064992920591
5.0E-4                    -0.0055                  301.9773649993187
5.0E-4                    -0.0045                  301.9585975727659
5.0E-4                    -0.0035                  301.93983014621307
5.0E-4                    -0.0025                  301.94472437645163
5.0E-4                    -0.0015                  301.95471237947174
5.0E-4                    -5.0E-4                  301.96542150990257
5.0E-4                    5.0E-4                   301.9907486987448
5.0E-4                    0.0015                   301.99972819743607
5.0E-4                    0.0025                   302.01464506253103
5.0E-4                    0.0035                   302.00242260788923
5.0E-4                    0.0045                   301.93277234174775
5.0E-4                    0.0055                   301.88616299259905
5.0E-4                    0.0065                   301.75629508167594
5.0E-4                    0.0075                   301.5401947112657
5.0E-4                    0.0085                   301.3811837382968
5.0E-4                    0.0095                   301.0149056196618
5.0E-4                    0.0105                   300.546205127802
5.0E-4                    0.0115                   300.18374435678794
5.0E-4                    0.0125                   299.3188254514712
5.0E-4                    0.0135                   298.35561764413944
5.0E-4                    0.0145                   297.6121322831774
5.0E-4                    0.0155                   296.6164328603129
5.0E-4                    0.0165                   295.6113966499017
5.0E-4                    0.0175                   294.85360837330086
5.0E-4                    0.0185                   294.8889576896946
5.0E-4                    0.0195                   294.9243070060884
5.0E-4                    0.0205                   294.13933039219364
5.0E-4                    0.0215                   293.68825985306637
5.0E-4                    0.0225                   293.26444052159866
5.0E-4                    0.0235                   293.1482838443918
5.0E-4                    0.0245                   293.14405831397653
5.0E-4                    0.0255                   293.14962282769557
5.0E-4                    0.0265                   293.1648678589653
5.0E-4                    0.0275                   293.17978552116415
5.0E-4                    0.0285                   293.2130754020763
5.0E-4                    0.0295                   293.2244229974284
5.0E-4                    0.0305                   293.2297284033006
5.0E-4                    0.0315                   293.23074883202094
0.0015                    -0.0315                  308.59502422784533
0.0015                    -0.0305                  307.40139193877565
0.0015                    -0.0295                  306.2791388399387
0.0015                    -0.0285                  305.27814977013105
0.0015                    -0.0275                  304.3756126531517
0.0015                    -0.0265                  303.95020801946094
0.0015                    -0.0255                  303.691956798717
0.0015                    -0.0245                  303.3026983324724
0.0015                    -0.0235                  303.1254450897378
0.0015                    -0.0225                  303.01373498011594
0.0015                    -0.0215                  302.8019172633422
0.0015                    -0.0205                  302.71763719973353
0.0015                    -0.0195                  302.64780024603766
0.0015                    -0.0185                  302.55008502210234
0.0015                    -0.0175                  302.47284530421
0.0015                    -0.0165                  302.39865148726483
0.0015                    -0.0155                  302.3372417163989
0.0015                    -0.0145                  302.24195807582225
0.0015                    -0.0135                  302.16318621274854
0.0015                    -0.0125                  302.116153169712
0.0015                    -0.0115                  302.01356704797627
0.0015                    -0.0105                  301.9407501012814
0.0015                    -0.0095                  301.9014710518774
0.0015                    -0.0085                  301.82350677553814
0.0015                    -0.0075                  301.7738078418629
0.0015                    -0.0065                  301.7479426285213
0.0015                    -0.0055                  301.71217762041965
0.0015                    -0.0045                  301.6864049636415
0.0015                    -0.0035                  301.6804336437538
0.0015                    -0.0025                  301.68603403314296
0.0015                    -0.0015                  301.69469755889656
0.0015                    -5.0E-4                  301.7218806881459
0.0015                    5.0E-4                   301.75892583036045
0.0015                    0.0015                   301.77329073180186
0.0015                    0.0025                   301.8144426426346
0.0015                    0.0035                   301.8665030801174
0.0015                    0.0045                   301.80685531030923
0.0015                    0.0055                   301.8165956481868
0.0015                    0.0065                   301.83265256938955
0.0015                    0.0075                   301.6165521989794
0.0015                    0.0085                   301.5541567190461
0.0015                    0.0095                   301.4383533288686
0.0015                    0.0105                   300.989118540483
0.0015                    0.0115                   300.7448581429204
0.0015                    0.0125                   300.3161661782234
0.0015                    0.0135                   299.429169277495
0.0015                    0.0145                   298.84071917677426
0.0015                    0.0155                   298.0951300566088
0.0015                    0.0165                   297.16959060376604
0.0015                    0.0175                   296.4057693703729
0.0015                    0.0185                   296.0529620105409
0.0015                    0.0195                   295.50519297101323
0.0015                    0.0205                   294.3517557096925
0.0015                    0.0215                   293.6980321688565
0.0015                    0.0225                   293.3902209911562
0.0015                    0.0235                   293.13764461815515
0.0015                    0.0245                   293.13412605639706
0.0015                    0.0255                   293.15139789879095
0.0015                    0.0265                   293.16808239493406
0.0015                    0.0275                   293.1838306732863
0.0015                    0.0285                   293.22589135547844
0.0015                    0.0295                   293.2679520376706
0.0015                    0.0305                   293.27847820282574
0.0015                    0.0315                   293.282630704377
0.0025                    -0.0315                  307.7697371544692
0.0025                    -0.0305                  306.6299160992292
0.0025                    -0.0295                  305.55467631223013
0.0025                    -0.0285                  304.55036509374384
0.0025                    -0.0275                  303.8370718471661
0.0025                    -0.0265                  303.55479361017547
0.0025                    -0.0255                  303.2757535846101
0.0025                    -0.0245                  303.08572730518864
0.0025                    -0.0235                  302.96718473809966
0.0025                    -0.0225                  302.8486421710107
0.0025                    -0.0215                  302.76623022773026
0.0025                    -0.0205                  302.69733065543824
0.0025                    -0.0195                  302.6284310831462
0.0025                    -0.0185                  302.55365439677223
0.0025                    -0.0175                  302.47635287483854
0.0025                    -0.0165                  302.3990513529049
0.0025                    -0.0155                  302.2816076425852
0.0025                    -0.0145                  302.18638440660277
0.0025                    -0.0135                  302.0911611706203
0.0025                    -0.0125                  301.9723327238022
0.0025                    -0.0115                  301.86994110800714
0.0025                    -0.0105                  301.7675494922121
0.0025                    -0.0095                  301.68125142226364
0.0025                    -0.0085                  301.6033109974712
0.0025                    -0.0075                  301.5261840195738
0.0025                    -0.0065                  301.4889747653158
0.0025                    -0.0055                  301.45320479701707
0.0025                    -0.0045                  301.4212270776943
0.0025                    -0.0035                  301.4265614722687
0.0025                    -0.0025                  301.43216339312573
0.0025                    -0.0015                  301.4416641965697
0.0025                    -5.0E-4                  301.478711029844
0.0025                    5.0E-4                   301.5157578631182
0.0025                    0.0015                   301.55411053675044
0.0025                    0.0025                   301.6060978055808
0.0025                    0.0035                   301.65808507441125
0.0025                    0.0045                   301.7008377854664
0.0025                    0.0055                   301.7233588723209
0.0025                    0.0065                   301.74587995917534
0.0025                    0.0075                   301.7422212886311
0.0025                    0.0085                   301.6839480213814
0.0025                    0.0095                   301.62567475413186
0.0025                    0.0105                   301.4872895024632
0.0025                    0.0115                   301.2428710356878
0.0025                    0.0125                   300.9984525689124
0.0025                    0.0135                   300.5610965968096
0.0025                    0.0145                   299.97095549378236
0.0025                    0.0155                   299.3808143907551
0.0025                    0.0165                   298.69526655486885
0.0025                    0.0175                   297.92432364491395
0.0025                    0.0185                   297.03127299688373
0.0025                    0.0195                   295.84315207677514
0.0025                    0.0205                   294.688616191958
0.0025                    0.0215                   293.75045195811754
0.0025                    0.0225                   293.491876056185
0.0025                    0.0235                   293.2333001542525
0.0025                    0.0245                   293.13584391524387
0.0025                    0.0255                   293.15317296988627
0.0025                    0.0265                   293.17044481228015
0.0025                    0.0275                   293.19664662668845
0.0025                    0.0285                   293.23913017281507
0.0025                    0.0295                   293.2818429867226
0.0025                    0.0305                   293.3143759478509
0.0025                    0.0315                   293.3345125767331
0.0035                    -0.0315                  307.09275693929504
0.0035                    -0.0305                  305.9477951009463
0.0035                    -0.0295                  304.84535959190885
0.0035                    -0.0285                  304.0002616249227
0.0035                    -0.0275                  303.69716461512604
0.0035                    -0.0265                  303.4009556452104
0.0035                    -0.0255                  303.1447052799621
0.0035                    -0.0245                  303.09026475872224
0.0035                    -0.0235                  302.9997066423644
0.0035                    -0.0225                  302.89618013768484
0.0035                    -0.0215                  302.8810581142527
0.0035                    -0.0205                  302.8268179770607
0.0035                    -0.0195                  302.75490940433747
0.0035                    -0.0185                  302.6741366234989
0.0035                    -0.0175                  302.5962806624299
0.0035                    -0.0165                  302.45786518671053
0.0035                    -0.0155                  302.2077344671901
0.0035                    -0.0145                  302.103824426948
0.0035                    -0.0135                  301.9582831445474
0.0035                    -0.0125                  301.7556636387916
0.0035                    -0.0115                  301.6532720229964
0.0035                    -0.0105                  301.54218050610194
0.0035                    -0.0095                  301.4298381317694
0.0035                    -0.0085                  301.35189770697696
0.0035                    -0.0075                  301.2937485710959
0.0035                    -0.0065                  301.24977801241437
0.0035                    -0.0055                  301.21400804411564
0.0035                    -0.0045                  301.19922341249367
0.0035                    -0.0035                  301.19653166081844
0.0035                    -0.0025                  301.20213358167547
0.0035                    -0.0015                  301.21372246777423
0.0035                    -5.0E-4                  301.23807220886897
0.0035                    5.0E-4                   301.2751190421432
0.0035                    0.0015                   301.3019801269875
0.0035                    0.0025                   301.3434533989014
0.0035                    0.0035                   301.3953534964037
0.0035                    0.0045                   301.446220286905
0.0035                    0.0055                   301.4773799812142
0.0035                    0.0065                   301.5085909233975
0.0035                    0.0075                   301.5762254062587
0.0035                    0.0085                   301.54256162649415
0.0035                    0.0095                   301.5184380760206
0.0035                    0.0105                   301.5703141630429
0.0035                    0.0115                   301.3500058695952
0.0035                    0.0125                   301.1853736127294
0.0035                    0.0135                   301.10537074002343
0.0035                    0.0145                   300.5152296369962
0.0035                    0.0155                   300.06630613295437
0.0035                    0.0165                   299.65550708096225
0.0035                    0.0175                   298.88456417100736
0.0035                    0.0185                   297.4661409354823
0.0035                    0.0195                   295.9962410354961
0.0035                    0.0205                   294.84875323395875
0.0035                    0.0215                   293.93092963998356
0.0035                    0.0225                   293.4366936916504
0.0035                    0.0235                   293.2263637164789
0.0035                    0.0245                   293.1311837211046
0.0035                    0.0255                   293.1491487773169
0.0035                    0.0265                   293.16779941206715
0.0035                    0.0275                   293.20288709189333
0.0035                    0.0285                   293.2540025439559
0.0035                    0.0295                   293.2967153578635
0.0035                    0.0305                   293.3269880823268
0.0035                    0.0315                   293.3526418420236
0.0045                    -0.0315                  306.4964820272241
0.0045                    -0.0305                  305.3288127184703
0.0045                    -0.0295                  304.2094521001973
0.0045                    -0.0285                  303.8670039187163
0.0045                    -0.0275                  303.5622733023374
0.0045                    -0.0265                  303.2575426859585
0.0045                    -0.0255                  303.1398150408242
0.0045                    -0.0245                  303.08537451958443
0.0045                    -0.0235                  303.0309339983446
0.0045                    -0.0225                  302.99277084602903
0.0045                    -0.0215                  302.97764882259685
0.0045                    -0.0205                  302.9563052986833
0.0045                    -0.0195                  302.87694632818796
0.0045                    -0.0185                  302.7961735473493
0.0045                    -0.0175                  302.7162084500212
0.0045                    -0.0165                  302.46927736715827
0.0045                    -0.0155                  302.21914664763773
0.0045                    -0.0145                  302.01392085896794
0.0045                    -0.0135                  301.8058945315863
0.0045                    -0.0125                  301.5978682042048
0.0045                    -0.0115                  301.43419211916864
0.0045                    -0.0105                  301.3155409041633
0.0045                    -0.0095                  301.19688968915796
0.0045                    -0.0085                  301.1081947174729
0.0045                    -0.0075                  301.061313122618
0.0045                    -0.0065                  301.014431527763
0.0045                    -0.0055                  300.9848051796323
0.0045                    -0.0045                  300.97721974729296
0.0045                    -0.0035                  300.9696343149536
0.0045                    -0.0025                  300.97535114019945
0.0045                    -0.0015                  300.9879655537328
0.0045                    -5.0E-4                  301.00057996726616
0.0045                    5.0E-4                   301.02843243950156
0.0045                    0.0015                   301.0549135832878
0.0045                    0.0025                   301.0813947270741
0.0045                    0.0035                   301.1320266988669
0.0045                    0.0045                   301.18289348936827
0.0045                    0.0055                   301.23140109010757
0.0045                    0.0065                   301.2900986976653
0.0045                    0.0075                   301.35773318052657
0.0045                    0.0085                   301.4011752316069
0.0045                    0.0095                   301.4442807786031
0.0045                    0.0105                   301.49615686562544
0.0045                    0.0115                   301.4648014129161
0.0045                    0.0125                   301.4057416018675
0.0045                    0.0135                   301.3466817908189
0.0045                    0.0145                   301.1025907923161
0.0045                    0.0155                   300.76333547087614
0.0045                    0.0165                   300.42408014943624
0.0045                    0.0175                   299.52842814706014
0.0045                    0.0185                   297.90100887408096
0.0045                    0.0195                   296.27358960110166
0.0045                    0.0205                   295.1498604248078
0.0045                    0.0215                   294.2320368308326
0.0045                    0.0225                   293.3888183071779
0.0045                    0.0235                   293.2740760804575
0.0045                    0.0245                   293.1593338537371
0.0045                    0.0255                   293.1449732909766
0.0045                    0.0265                   293.16682552858055
0.0045                    0.0275                   293.1988205589592
0.0045                    0.0285                   293.2531777670345
0.0045                    0.0295                   293.30752174773227
0.0045                    0.0305                   293.33991673268565
0.0045                    0.0315                   293.36574467744373
0.0055                    -0.0315                  305.90020711515314
0.0055                    -0.0305                  305.0110724707922
0.0055                    -0.0295                  304.15268239804436
0.0055                    -0.0285                  303.7945366483681
0.0055                    -0.0275                  303.4861738953353
0.0055                    -0.0265                  303.2803676458882
0.0055                    -0.0255                  303.22518315494943
0.0055                    -0.0245                  303.16355535098694
0.0055                    -0.0235                  303.13889989567474
0.0055                    -0.0225                  303.16186507081454
0.0055                    -0.0215                  303.1464146800757
0.0055                    -0.0205                  303.0353958035628
0.0055                    -0.0195                  302.89453437536287
0.0055                    -0.0185                  302.8143834728522
0.0055                    -0.0175                  302.5304407259429
0.0055                    -0.0165                  302.2223466190975
0.0055                    -0.0155                  301.97432769095883
0.0055                    -0.0145                  301.73726736818077
0.0055                    -0.0135                  301.52350132025816
0.0055                    -0.0125                  301.3165724305637
0.0055                    -0.0115                  301.2113778105009
0.0055                    -0.0105                  301.1002398626367
0.0055                    -0.0095                  300.9815703727065
0.0055                    -0.0085                  300.96334776379376
0.0055                    -0.0075                  300.9192687828403
0.0055                    -0.0065                  300.87235422594324
0.0055                    -0.0055                  300.8901717783847
0.0055                    -0.0045                  300.8825569574286
0.0055                    -0.0035                  300.8771572583119
0.0055                    -0.0025                  300.89830170597565
0.0055                    -0.0015                  300.9109411112369
0.0055                    -5.0E-4                  300.9248305713404
0.0055                    5.0E-4                   300.94632993570224
0.0055                    0.0015                   300.9733777962085
0.0055                    0.0025                   300.99810634189697
0.0055                    0.0035                   301.0290868784
0.0055                    0.0045                   301.0805040687106
0.0055                    0.0055                   301.12120238840663
0.0055                    0.0065                   301.16658999543506
0.0055                    0.0075                   301.2345692759423
0.0055                    0.0085                   301.28464307366687
0.0055                    0.0095                   301.328955209871
0.0055                    0.0105                   301.380736363502
0.0055                    0.0115                   301.42888391678554
0.0055                    0.0125                   301.40180677656645
0.0055                    0.0135                   301.34219452567413
0.0055                    0.0145                   301.3016057777178
0.0055                    0.0155                   301.01081420533006
0.0055                    0.0165                   300.660105509496
0.0055                    0.0175                   299.85178931195213
0.0055                    0.0185                   298.28215619237034
0.0055                    0.0195                   296.66249336673155
0.0055                    0.0205                   295.1269306146457
0.0055                    0.0215                   294.20562453205304
0.0055                    0.0225                   293.52395510710437
0.0055                    0.0235                   293.2686618433727
0.0055                    0.0245                   293.1695166104408
0.0055                    0.0255                   293.14559251641765
0.0055                    0.0265                   293.16595747235465
0.0055                    0.0275                   293.1947540260251
0.0055                    0.0285                   293.2488571132979
0.0055                    0.0295                   293.30288827158705
0.0055                    0.0305                   293.34228874012
0.0055                    0.0315                   293.3788475128639
0.0065                    -0.0315                  305.82817310020755
0.0065                    -0.0305                  304.9426906262498
0.0065                    -0.0295                  304.12407366732606
0.0065                    -0.0285                  303.76592791764983
0.0065                    -0.0275                  303.4160379191577
0.0065                    -0.0265                  303.36275580126807
0.0065                    -0.0255                  303.3094736833783
0.0065                    -0.0245                  303.2499803837574
0.0065                    -0.0235                  303.28668079005394
0.0065                    -0.0225                  303.33275223960067
0.0065                    -0.0215                  303.30772142484057
0.0065                    -0.0205                  303.1026739683964
0.0065                    -0.0195                  302.8976265119522
0.0065                    -0.0185                  302.7217549713366
0.0065                    -0.0175                  302.31217977365895
0.0065                    -0.0165                  301.906546545412
0.0065                    -0.0155                  301.6636806527368
0.0065                    -0.0145                  301.43144443294915
0.0065                    -0.0135                  301.2022994332894
0.0065                    -0.0125                  301.0455090506255
0.0065                    -0.0115                  300.9721235632617
0.0065                    -0.0105                  300.8885696585316
0.0065                    -0.0095                  300.8248441860379
0.0065                    -0.0085                  300.82309348200033
0.0065                    -0.0075                  300.80653948616896
0.0065                    -0.0065                  300.798968029095
0.0065                    -0.0055                  300.8205188637064
0.0065                    -0.0045                  300.829343123545
0.0065                    -0.0035                  300.84243651496297
0.0065                    -0.0025                  300.8651266105634
0.0065                    -0.0015                  300.88233819281567
0.0065                    -5.0E-4                  300.9004278130504
0.0065                    5.0E-4                   300.9199637754997
0.0065                    0.0015                   300.9443921792281
0.0065                    0.0025                   300.96434440727126
0.0065                    0.0035                   300.98354482297367
0.0065                    0.0045                   301.0264710147709
0.0065                    0.0055                   301.0518570846249
0.0065                    0.0065                   301.07724315447877
0.0065                    0.0075                   301.1344550902597
0.0065                    0.0085                   301.1685584970178
0.0065                    0.0095                   301.202661903776
0.0065                    0.0105                   301.25231539583734
0.0065                    0.0115                   301.2985200877637