% Model:              SIMBench260525.mph
% Version:            COMSOL 6.2.0.339
% Date:               May 27 2026, 18:21
% Dimension:          2
% Nodes:              4096
% Expressions:        1
% Description:        温度
% Length unit:        m
% x                       y                        T (K)
5.0E-4                    -0.0315                  442.9759243007991
5.0E-4                    -0.0305                  440.8514156342783
5.0E-4                    -0.0295                  438.7109109050633
5.0E-4                    -0.0285                  434.8892711302857
5.0E-4                    -0.0275                  430.47849180148614
5.0E-4                    -0.0265                  426.06771247268665
5.0E-4                    -0.0255                  421.87680383447196
5.0E-4                    -0.0245                  418.1955536633114
5.0E-4                    -0.0235                  414.5143034921509
5.0E-4                    -0.0225                  411.97401637090945
5.0E-4                    -0.0215                  409.7170828582573
5.0E-4                    -0.0205                  407.4601493456053
5.0E-4                    -0.0195                  405.6995445965046
5.0E-4                    -0.0185                  403.9164171407132
5.0E-4                    -0.0175                  402.1332896849218
5.0E-4                    -0.0165                  399.97266120592633
5.0E-4                    -0.0155                  398.10155580463766
5.0E-4                    -0.0145                  396.23045040334904
5.0E-4                    -0.0135                  391.63060455334477
5.0E-4                    -0.0125                  383.9630618735768
5.0E-4                    -0.0115                  376.2955191938088
5.0E-4                    -0.0105                  364.88282190532095
5.0E-4                    -0.0095                  345.013647372478
5.0E-4                    -0.0085                  325.14447283963494
5.0E-4                    -0.0075                  309.5480726000167
5.0E-4                    -0.0065                  302.33133796685473
5.0E-4                    -0.0055                  295.5210293806998
5.0E-4                    -0.0045                  293.50270604483194
5.0E-4                    -0.0035                  293.26289152105164
5.0E-4                    -0.0025                  293.1274640975447
5.0E-4                    -0.0015                  293.13917465540607
5.0E-4                    -5.0E-4                  293.15424522296564
5.0E-4                    5.0E-4                   293.15914459810244
5.0E-4                    0.0015                   293.15197916154733
5.0E-4                    0.0025                   293.1419466475058
5.0E-4                    0.0035                   293.14378691987525
5.0E-4                    0.0045                   293.17273549084365
5.0E-4                    0.0055                   293.55440353560255
5.0E-4                    0.0065                   295.2616459744285
5.0E-4                    0.0075                   297.1029149658342
5.0E-4                    0.0085                   301.8850708507283
5.0E-4                    0.0095                   307.36672020039686
5.0E-4                    0.0105                   312.8483695500654
5.0E-4                    0.0115                   319.20285523268194
5.0E-4                    0.0125                   327.3575979507824
5.0E-4                    0.0135                   335.51234066888287
5.0E-4                    0.0145                   339.084548166031
5.0E-4                    0.0155                   342.1585249743169
5.0E-4                    0.0165                   345.2325017826027
5.0E-4                    0.0175                   347.96472958912227
5.0E-4                    0.0185                   350.5243773312501
5.0E-4                    0.0195                   353.084025073378
5.0E-4                    0.0205                   356.0368230474671
5.0E-4                    0.0215                   358.4811713257788
5.0E-4                    0.0225                   360.9255196040905
5.0E-4                    0.0235                   364.1237550703462
5.0E-4                    0.0245                   367.366841265075
5.0E-4                    0.0255                   370.6099274598037
5.0E-4                    0.0265                   374.58226750799264
5.0E-4                    0.0275                   378.65715248342974
5.0E-4                    0.0285                   382.7320374588669
5.0E-4                    0.0295                   386.421651864132
5.0E-4                    0.0305                   388.66852441100616
5.0E-4                    0.0315                   390.9153969578803
0.0015                    -0.0315                  442.5358266771855
0.0015                    -0.0305                  440.85062137637374
0.0015                    -0.0295                  438.14548971405696
0.0015                    -0.0285                  433.8063334185304
0.0015                    -0.0275                  429.43369024012316
0.0015                    -0.0265                  425.09241236810215
0.0015                    -0.0255                  420.8080311302434
0.0015                    -0.0245                  416.8609643254792
0.0015                    -0.0235                  413.8887159716925
0.0015                    -0.0225                  411.5337073151853
0.0015                    -0.0215                  409.2401029617549
0.0015                    -0.0205                  407.28903395159796
0.0015                    -0.0195                  405.67431532026194
0.0015                    -0.0185                  403.9582887144528
0.0015                    -0.0175                  401.90638180513594
0.0015                    -0.0165                  399.54800852234575
0.0015                    -0.0155                  397.47640327746626
0.0015                    -0.0145                  394.4122526167308
0.0015                    -0.0135                  390.0005075954582
0.0015                    -0.0125                  383.67686572745333
0.0015                    -0.0115                  375.0078198682171
0.0015                    -0.0105                  365.2473271573558
0.0015                    -0.0095                  349.43877386199
0.0015                    -0.0085                  330.63329685096
0.0015                    -0.0075                  312.88689626438224
0.0015                    -0.0065                  302.64957314313534
0.0015                    -0.0055                  297.6350529578985
0.0015                    -0.0045                  293.402415727412
0.0015                    -0.0035                  293.17480152493033
0.0015                    -0.0025                  293.1607077357911
0.0015                    -0.0015                  293.15597682202304
0.0015                    -5.0E-4                  293.1675160503312
0.0015                    5.0E-4                   293.1732226908322
0.0015                    0.0015                   293.17067494743344
0.0015                    0.0025                   293.14715679107724
0.0015                    0.0035                   293.11673689249596
0.0015                    0.0045                   293.1597928421811
0.0015                    0.0055                   293.9701544928425
0.0015                    0.0065                   295.06570804626085
0.0015                    0.0075                   298.1311406978632
0.0015                    0.0085                   303.8328051354338
0.0015                    0.0095                   309.4121757009431
0.0015                    0.0105                   315.15357827668134
0.0015                    0.0115                   321.22113127147907
0.0015                    0.0125                   328.4756327487928
0.0015                    0.0135                   334.01625826672296
0.0015                    0.0145                   336.40770502969264
0.0015                    0.0155                   339.1922552402375
0.0015                    0.0165                   342.09101636118595
0.0015                    0.0175                   344.7768775611878
0.0015                    0.0185                   347.38893865979617
0.0015                    0.0195                   350.2523337206425
0.0015                    0.0205                   353.4858072756421
0.0015                    0.0215                   356.2473325820635
0.0015                    0.0225                   359.1339234162861
0.0015                    0.0235                   362.539547941274
0.0015                    0.0245                   365.84203898083064
0.0015                    0.0255                   369.58753450064336
0.0015                    0.0265                   373.6790567145373
0.0015                    0.0275                   377.75905912539724
0.0015                    0.0285                   381.8683625867291
0.0015                    0.0295                   386.03226693853526
0.0015                    0.0305                   388.82790234119267
0.0015                    0.0315                   390.48783911904195
0.0025                    -0.0315                  442.0957290535721
0.0025                    -0.0305                  440.2057571167823
0.0025                    -0.0295                  437.4144379560152
0.0025                    -0.0285                  433.0033225753947
0.0025                    -0.0275                  428.5118009870049
0.0025                    -0.0265                  424.1500776417546
0.0025                    -0.0255                  419.8638307973113
0.0025                    -0.0245                  416.0759403965131
0.0025                    -0.0235                  413.6727152738039
0.0025                    -0.0225                  411.25463007699557
0.0025                    -0.0215                  409.0196727288307
0.0025                    -0.0205                  407.42204856176124
0.0025                    -0.0195                  405.82442439469173
0.0025                    -0.0185                  404.14342370488686
0.0025                    -0.0175                  401.8004550283664
0.0025                    -0.0165                  399.4574863518459
0.0025                    -0.0155                  396.60335008372857
0.0025                    -0.0145                  392.1457075842679
0.0025                    -0.0135                  387.73399529536516
0.0025                    -0.0125                  382.87919790552615
0.0025                    -0.0115                  373.1507104337618
0.0025                    -0.0105                  363.38231147791544
0.0025                    -0.0095                  353.5304212470743
0.0025                    -0.0085                  335.76134635850656
0.0025                    -0.0075                  317.9922714699387
0.0025                    -0.0065                  303.6440109946951
0.0025                    -0.0055                  299.3613958125616
0.0025                    -0.0045                  295.078780630428
0.0025                    -0.0035                  293.19781689887765
0.0025                    -0.0025                  293.183388915745
0.0025                    -0.0015                  293.16896093261244
0.0025                    -5.0E-4                  293.18042355713675
0.0025                    5.0E-4                   293.1861558837554
0.0025                    0.0015                   293.18307293165066
0.0025                    0.0025                   293.1526494772841
0.0025                    0.0035                   293.1222260229176
0.0025                    0.0045                   293.46342966284806
0.0025                    0.0055                   294.27918436004006
0.0025                    0.0065                   295.09493905723195
0.0025                    0.0075                   299.63499107089586
0.0025                    0.0085                   305.37758410155004
0.0025                    0.0095                   311.1187500506499
0.0025                    0.0105                   317.1649682431438
0.0025                    0.0115                   323.2363846899408
0.0025                    0.0125                   328.8233525204115
0.0025                    0.0135                   331.13813044947034
0.0025                    0.0145                   333.54180063228216
0.0025                    0.0155                   335.89768226044237
0.0025                    0.0165                   338.5628873581203
0.0025                    0.0175                   341.2620225874218
0.0025                    0.0185                   344.045785376694
0.0025                    0.0195                   347.2961338505338
0.0025                    0.0205                   350.53465386141306
0.0025                    0.0215                   353.9731480429693
0.0025                    0.0225                   357.31576170642717
0.0025                    0.0235                   360.6564213127216
0.0025                    0.0245                   364.44645688310715
0.0025                    0.0255                   368.62848084477787
0.0025                    0.0265                   372.7720059867373
0.0025                    0.0275                   376.86096576736486
0.0025                    0.0285                   381.08892651933934
0.0025                    0.0295                   385.39933982921775
0.0025                    0.0305                   388.38590868779625
0.0025                    0.0315                   390.0537257353283
0.0035                    -0.0315                  441.42053475916225
0.0035                    -0.0305                  439.1796086854265
0.0035                    -0.0295                  436.9695024079085
0.0035                    -0.0285                  432.5183300674736
0.0035                    -0.0275                  427.83954310556203
0.0035                    -0.0265                  423.24062013066833
0.0035                    -0.0255                  418.95437328622495
0.0035                    -0.0245                  416.72370680641006
0.0035                    -0.0235                  414.47605481886546
0.0035                    -0.0225                  412.0579696220572
0.0035                    -0.0215                  411.0064615450972
0.0035                    -0.0205                  409.9223563389699
0.0035                    -0.0195                  408.32473217190034
0.0035                    -0.0185                  406.1666577803351
0.0035                    -0.0175                  403.8219066732727
0.0035                    -0.0165                  401.4789379967522
0.0035                    -0.0155                  395.7817779693439
0.0035                    -0.0145                  389.88589164386406
0.0035                    -0.0135                  385.47417935496134
0.0035                    -0.0125                  378.4177576987859
0.0035                    -0.0115                  369.86428123390397
0.0035                    -0.0105                  360.0958822780577
0.0035                    -0.0095                  350.0262472640618
0.0035                    -0.0085                  336.4986196606403
0.0035                    -0.0075                  318.7295447720725
0.0035                    -0.0065                  306.271537687244
0.0035                    -0.0055                  298.97379355073724
0.0035                    -0.0045                  295.2771294131929
0.0035                    -0.0035                  293.3780567801435
0.0035                    -0.0025                  293.1551934249871
0.0035                    -0.0015                  293.1691464988012
0.0035                    -5.0E-4                  293.2005013061759
0.0035                    5.0E-4                   293.2062336327945
0.0035                    0.0015                   293.1863649599415
0.0035                    0.0025                   293.1594010987792
0.0035                    0.0035                   293.17020290093893
0.0035                    0.0045                   293.36300325841836
0.0035                    0.0055                   294.0567711112881
0.0035                    0.0065                   295.7585119027557
0.0035                    0.0075                   298.769996657631
0.0035                    0.0085                   304.5125896882851
0.0035                    0.0095                   310.2413229876944
0.0035                    0.0105                   316.0720688767069
0.0035                    0.0115                   322.1434853235039
0.0035                    0.0125                   324.27658320431226
0.0035                    0.0135                   325.53058457663235
0.0035                    0.0145                   327.9342547594442
0.0035                    0.0155                   329.93633548531994
0.0035                    0.0165                   332.0790280236597
0.0035                    0.0175                   334.7781632529613
0.0035                    0.0185                   338.19475379063687
0.0035                    0.0195                   341.72826719539063
0.0035                    0.0205                   344.96678720626994
0.0035                    0.0215                   349.6732820975672
0.0035                    0.0225                   354.11645858802035
0.0035                    0.0235                   357.4571181943147
0.0035                    0.0245                   362.4629904977071
0.0035                    0.0255                   366.935481624531
0.0035                    0.0265                   371.1713863989497
0.0035                    0.0275                   376.23382803312234
0.0035                    0.0285                   380.8072176623428
0.0035                    0.0295                   385.1351545312597
0.0035                    0.0305                   387.85732430729576
0.0035                    0.0315                   389.5572879829772
0.0045                    -0.0315                  441.2260859609188
0.0045                    -0.0305                  438.7803750703497
0.0045                    -0.0295                  436.36625319621726
0.0045                    -0.0285                  431.94305457572284
0.0045                    -0.0275                  427.24649116920796
0.0045                    -0.0265                  422.5499277626931
0.0045                    -0.0255                  419.51374061915027
0.0045                    -0.0245                  417.3714732163072
0.0045                    -0.0235                  415.22920581346415
0.0045                    -0.0225                  413.6481093438641
0.0045                    -0.0215                  412.9555155453189
0.0045                    -0.0205                  412.26292174677366
0.0045                    -0.0195                  410.5357769574999
0.0045                    -0.0185                  408.18989574579837
0.0045                    -0.0175                  405.8440145340969
0.0045                    -0.0165                  401.7247133245369
0.0045                    -0.0155                  394.9602058549593
0.0045                    -0.0145                  388.1956983853818
0.0045                    -0.0135                  381.7709291913906
0.0045                    -0.0125                  373.95631749204574
0.0045                    -0.0115                  366.1417057927008
0.0045                    -0.0105                  356.6394514628952
0.0045                    -0.0095                  346.5000339749978
0.0045                    -0.0085                  336.3606164871004
0.0045                    -0.0075                  322.76010401141616
0.0045                    -0.0065                  310.38656750164995
0.0045                    -0.0055                  298.58619128891286
0.0045                    -0.0045                  296.31722951781694
0.0045                    -0.0035                  294.41815688476754
0.0045                    -0.0025                  293.134132566929
0.0045                    -0.0015                  293.17126872264
0.0045                    -5.0E-4                  293.208404878351
0.0045                    5.0E-4                   293.21284671137744
0.0045                    0.0015                   293.18919839589364
0.0045                    0.0025                   293.16555008040973
0.0045                    0.0035                   293.30879235089884
0.0045                    0.0045                   293.5015927083783
0.0045                    0.0055                   293.92543248767845
0.0045                    0.0065                   296.6758952693393
0.0045                    0.0075                   299.42635805100014
0.0045                    0.0085                   303.6423567494843
0.0045                    0.0095                   309.3638959247388
0.0045                    0.0105                   315.08543509999333
0.0045                    0.0115                   319.05071422469723
0.0045                    0.0125                   319.7298138882131
0.0045                    0.0135                   320.408913551729
0.0045                    0.0145                   322.12712531311206
0.0045                    0.0155                   323.9749887101975
0.0045                    0.0165                   325.822852107283
0.0045                    0.0175                   328.64161906680187
0.0045                    0.0185                   332.34372220457976
0.0045                    0.0195                   336.0458253423577
0.0045                    0.0205                   340.1180895187766
0.0045                    0.0215                   345.3734161521652
0.0045                    0.0225                   350.62874278555375
0.0045                    0.0235                   355.2745681944447
0.0045                    0.0245                   360.3928377278813
0.0045                    0.0255                   365.45604611813445
0.0045                    0.0265                   370.5775932352293
0.0045                    0.0275                   375.6154583906948
0.0045                    0.0285                   380.1888480199152
0.0045                    0.0295                   384.76223764913567
0.0045                    0.0305                   387.364002417638
0.0045                    0.0315                   389.09156775546074
0.0055                    -0.0315                  441.0316371626755
0.0055                    -0.0305                  438.82017719318753
0.0055                    -0.0295                  436.6272414409375
0.0055                    -0.0285                  432.1076643384936
0.0055                    -0.0275                  427.42608384512357
0.0055                    -0.0265                  423.36559638810854
0.0055                    -0.0255                  420.80377151031837
0.0055                    -0.0245                  418.583257744774
0.0055                    -0.0235                  416.5369389230098
0.0055                    -0.0225                  416.44454228439906
0.0055                    -0.0215                  415.7295890026404
0.0055                    -0.0205                  415.0146357208817
0.0055                    -0.0195                  413.2437977270021
0.0055                    -0.0185                  410.9162978948293
0.0055                    -0.0175                  408.3764626591189
0.0055                    -0.0165                  400.53495795555375
0.0055                    -0.0155                  393.76494963735416
0.0055                    -0.0145                  386.7900718581248
0.0055                    -0.0135                  377.2632079113032
0.0055                    -0.0125                  369.4483871580647
0.0055                    -0.0115                  362.01566414210157
0.0055                    -0.0105                  356.8721706457145
0.0055                    -0.0095                  346.77349566114395
0.0055                    -0.0085                  336.0690088840564
0.0055                    -0.0075                  323.3973863806532
0.0055                    -0.0065                  310.9655727311624
0.0055                    -0.0055                  300.894471604594
0.0055                    -0.0045                  296.36635033812615
0.0055                    -0.0035                  294.45123765180944
0.0055                    -0.0025                  293.34512203296384
0.0055                    -0.0015                  293.17157302511765
0.0055                    -5.0E-4                  293.20809486826863
0.0055                    5.0E-4                   293.22905086160034
0.0055                    0.0015                   293.2054984575416
0.0055                    0.0025                   293.1957946460135
0.0055                    0.0035                   293.27255792088386
0.0055                    0.0045                   293.4680098976892
0.0055                    0.0055                   294.127087162389
0.0055                    0.0065                   296.25708960122114
0.0055                    0.0075                   299.0383201224569
0.0055                    0.0085                   303.2057156368159
0.0055                    0.0095                   308.790296528734
0.0055                    0.0105                   314.5042531156684
0.0055                    0.0115                   316.81913062856034
0.0055                    0.0125                   317.4688654240246
0.0055                    0.0135                   318.1186002194889
0.0055                    0.0145                   318.35844095825036
0.0055                    0.0155                   320.18223530189897
0.0055                    0.0165                   322.00602964554764
0.0055                    0.0175                   323.52482987187256
0.0055                    0.0185                   327.2235775649642
0.0055                    0.0195                   330.9223252580559
0.0055                    0.0205                   334.93825815156833
0.0055                    0.0215                   340.1534415776749
0.0055                    0.0225                   345.59377897308445
0.0055                    0.0235                   351.9907776851887
0.0055                    0.0245                   356.99422837435577
0.0055                    0.0255                   362.86902709051594
0.0055                    0.0265                   369.50294522374486
0.0055                    0.0275                   374.9970887482672
0.0055                    0.0285                   379.6223217197302
0.0055                    0.0295                   384.27132255982815
0.0055                    0.0305                   386.7619509417429
0.0055                    0.0315                   388.6257437701475
0.0065                    -0.0315                  441.288992624677
0.0065                    -0.0305                  439.08116543790777
0.0065                    -0.0295                  436.7595837637905
0.0065                    -0.0285                  432.1813700044641
0.0065                    -0.0275                  427.6031562451377
0.0065                    -0.0265                  424.85553287566654
0.0065                    -0.0255                  422.2564425530376
0.0065                    -0.0245                  419.88124522240065
0.0065                    -0.0235                  419.2036280027462
0.0065                    -0.0225                  419.25439628039146
0.0065                    -0.0215                  418.9009594588757
0.0065                    -0.0205                  417.66042675879845
0.0065                    -0.0195                  416.0264759983811
0.0065                    -0.0185                  413.9765346633248
0.0065                    -0.0175                  407.83359302634034
0.0065                    -0.0165                  399.8103289040081
0.0065                    -0.0155                  392.4243003297349
0.0065                    -0.0145                  383.48928119490347
0.0065                    -0.0135                  373.66307608275315
0.0065                    -0.0125                  364.9241303234923
0.0065                    -0.0115                  359.9404993691283
0.0065                    -0.0105                  355.95195007294035
0.0065                    -0.0095                  348.26093656688175
0.0065                    -0.0085                  335.91521539419006
0.0065                    -0.0075                  323.13779593447646
0.0065                    -0.0065                  310.7806936619898
0.0065                    -0.0055                  303.72737922166834
0.0065                    -0.0045                  296.6740647813469
0.0065                    -0.0035                  294.61950073576304
0.0065                    -0.0025                  293.82535258857587
0.0065                    -0.0015                  293.17156311697283
0.0065                    -5.0E-4                  293.1997701598172
0.0065                    5.0E-4                   293.2226169070485
0.0065                    0.0015                   293.22369354035595
0.0065                    0.0025                   293.23629536952905
0.0065                    0.0035                   293.25032031099965
0.0065                    0.0045                   293.6013644671539
0.0065                    0.0055                   294.4989539263526
0.0065                    0.0065                   295.55758335136073
0.0065                    0.0075                   299.121070328199
0.0065                    0.0085                   303.5044115764332
0.0065                    0.0095                   308.3079218663296
0.0065                    0.0105                   312.0243858574675
0.0065                    0.0115                   314.4453251348015