% Model:              SIMBench260525粗网格.mph
% Version:            COMSOL 6.2.0.339
% Date:               May 27 2026, 20:02
% Dimension:          2
% Nodes:              4096
% Expressions:        1
% Description:        温度
% Length unit:        m
% x                       y                        T (K)
5.0E-4                    -0.0315                  313.96421438472197
5.0E-4                    -0.0305                  312.943838614574
5.0E-4                    -0.0295                  311.9234628444261
5.0E-4                    -0.0285                  310.9030870742782
5.0E-4                    -0.0275                  309.8827113041302
5.0E-4                    -0.0265                  309.2384281595389
5.0E-4                    -0.0255                  308.5216652119251
5.0E-4                    -0.0245                  307.8049022643113
5.0E-4                    -0.0235                  307.08813931669755
5.0E-4                    -0.0225                  306.3890557940072
5.0E-4                    -0.0215                  306.1548128115995
5.0E-4                    -0.0205                  305.8898013480315
5.0E-4                    -0.0195                  305.62478988446344
5.0E-4                    -0.0185                  305.3597784208954
5.0E-4                    -0.0175                  305.1056191965093
5.0E-4                    -0.0165                  304.93561482958614
5.0E-4                    -0.0155                  304.78552987464275
5.0E-4                    -0.0145                  304.6354449196994
5.0E-4                    -0.0135                  304.485359964756
5.0E-4                    -0.0125                  304.3249201425378
5.0E-4                    -0.0115                  304.1678259509056
5.0E-4                    -0.0105                  304.02843681548705
5.0E-4                    -0.0095                  303.88904768006853
5.0E-4                    -0.0085                  303.74965854464995
5.0E-4                    -0.0075                  303.60021787223883
5.0E-4                    -0.0065                  303.3379493641532
5.0E-4                    -0.0055                  303.04720817539805
5.0E-4                    -0.0045                  302.75646698664286
5.0E-4                    -0.0035                  302.4657257978877
5.0E-4                    -0.0025                  302.229988312272
5.0E-4                    -0.0015                  301.43624522767567
5.0E-4                    -5.0E-4                  300.5588629834255
5.0E-4                    5.0E-4                   299.6814807391753
5.0E-4                    0.0015                   298.80409849492514
5.0E-4                    0.0025                   298.19746218836303
5.0E-4                    0.0035                   297.4037576620872
5.0E-4                    0.0045                   296.6082799940367
5.0E-4                    0.0055                   295.81280232598624
5.0E-4                    0.0065                   295.0173246579358
5.0E-4                    0.0075                   294.4141591822576
5.0E-4                    0.0085                   294.44234785617414
5.0E-4                    0.0095                   294.4705365300906
5.0E-4                    0.0105                   294.4987252040071
5.0E-4                    0.0115                   294.5269138779236
5.0E-4                    0.0125                   294.0944400557101
5.0E-4                    0.0135                   293.82799097036354
5.0E-4                    0.0145                   293.56154188501705
5.0E-4                    0.0155                   293.29509279967056
5.0E-4                    0.0165                   293.16935944793323
5.0E-4                    0.0175                   293.19509252288833
5.0E-4                    0.0185                   293.22082559784343
5.0E-4                    0.0195                   293.2465586727985
5.0E-4                    0.0205                   293.3040903067633
5.0E-4                    0.0215                   293.2833560481506
5.0E-4                    0.0225                   293.2626217895378
5.0E-4                    0.0235                   293.24188753092494
5.0E-4                    0.0245                   293.25018868398223
5.0E-4                    0.0255                   293.2459228491701
5.0E-4                    0.0265                   293.24045112807687
5.0E-4                    0.0275                   293.2349794069837
5.0E-4                    0.0285                   293.2273944999177
5.0E-4                    0.0295                   293.21773189146
5.0E-4                    0.0305                   293.2080692830024
5.0E-4                    0.0315                   293.1980794982812
0.0015                    -0.0315                  313.2009164462197
0.0015                    -0.0305                  312.11105221217974
0.0015                    -0.0295                  311.09067644203185
0.0015                    -0.0285                  310.07030067188396
0.0015                    -0.0275                  309.196831086888
0.0015                    -0.0265                  308.70493881702373
0.0015                    -0.0255                  308.0699817219911
0.0015                    -0.0245                  307.35321877437735
0.0015                    -0.0235                  306.6364558267636
0.0015                    -0.0225                  306.2531491310187
0.0015                    -0.0215                  306.0411385421822
0.0015                    -0.0205                  305.7859867169574
0.0015                    -0.0195                  305.52097525338934
0.0015                    -0.0185                  305.25596378982124
0.0015                    -0.0175                  305.04729904557917
0.0015                    -0.0165                  304.8536575873511
0.0015                    -0.0155                  304.70188973418135
0.0015                    -0.0145                  304.55180477923795
0.0015                    -0.0135                  304.4017198242946
0.0015                    -0.0125                  304.2160144787084
0.0015                    -0.0115                  304.0292543878588
0.0015                    -0.0105                  303.88986525244025
0.0015                    -0.0095                  303.7504761170218
0.0015                    -0.0085                  303.61108698160325
0.0015                    -0.0075                  303.44468674784963
0.0015                    -0.0065                  303.25303698327536
0.0015                    -0.0055                  302.96229579452023
0.0015                    -0.0045                  302.6715546057651
0.0015                    -0.0035                  302.38748799518567
0.0015                    -0.0025                  302.2154992048623
0.0015                    -0.0015                  301.82416559088267
0.0015                    -5.0E-4                  300.94678334663246
0.0015                    5.0E-4                   300.06940110238236
0.0015                    0.0015                   299.2772644694162
0.0015                    0.0025                   298.8672343548818
0.0015                    0.0035                   298.29121364188643
0.0015                    0.0045                   297.49573597383596
0.0015                    0.0055                   296.7002583057855
0.0015                    0.0065                   295.9567318717984
0.0015                    0.0075                   295.32149793663575
0.0015                    0.0085                   295.0737988436324
0.0015                    0.0095                   295.1019875175489
0.0015                    0.0105                   295.13017619146535
0.0015                    0.0115                   294.7823928775869
0.0015                    0.0125                   294.1291978187487
0.0015                    0.0135                   293.8327547248247
0.0015                    0.0145                   293.56630563947823
0.0015                    0.0155                   293.3414867827638
0.0015                    0.0165                   293.17695957757263
0.0015                    0.0175                   293.1891055842662
0.0015                    0.0185                   293.2148386592213
0.0015                    0.0195                   293.2876082139068
0.0015                    0.0205                   293.4081678197286
0.0015                    0.0215                   293.3874335611158
0.0015                    0.0225                   293.366699302503
0.0015                    0.0235                   293.3672713318183
0.0015                    0.0245                   293.3796589571569
0.0015                    0.0255                   293.39160276167473
0.0015                    0.0265                   293.38974869942456
0.0015                    0.0275                   293.3842769783314
0.0015                    0.0285                   293.37665658668413
0.0015                    0.0295                   293.3669939782265
0.0015                    0.0305                   293.35634984097805
0.0015                    0.0315                   293.34247696326327
0.0025                    -0.0315                  312.43825775914917
0.0025                    -0.0305                  311.34647577081387
0.0025                    -0.0295                  310.25789003963746
0.0025                    -0.0285                  309.23751426948957
0.0025                    -0.0275                  308.59899638207605
0.0025                    -0.0265                  308.1071041122118
0.0025                    -0.0255                  307.61521184234755
0.0025                    -0.0245                  306.9015352844434
0.0025                    -0.0235                  306.3292530568667
0.0025                    -0.0225                  306.1172424680302
0.0025                    -0.0215                  305.9052318791937
0.0025                    -0.0205                  305.6821720858832
0.0025                    -0.0195                  305.4171606223152
0.0025                    -0.0185                  305.1826203528773
0.0025                    -0.0175                  304.9889788946491
0.0025                    -0.0165                  304.795337436421
0.0025                    -0.0155                  304.61824959371995
0.0025                    -0.0145                  304.4681646387765
0.0025                    -0.0135                  304.2981958691874
0.0025                    -0.0125                  304.107108814879
0.0025                    -0.0115                  303.9160217605706
0.0025                    -0.0105                  303.75129368939355
0.0025                    -0.0095                  303.611904553975
0.0025                    -0.0085                  303.4568363726629
0.0025                    -0.0075                  303.2891556234603
0.0025                    -0.0065                  303.12147487425773
0.0025                    -0.0055                  302.8773834136424
0.0025                    -0.0045                  302.5866422248872
0.0025                    -0.0035                  302.37299888777596
0.0025                    -0.0025                  302.2010100974526
0.0025                    -0.0015                  302.02902130712926
0.0025                    -5.0E-4                  301.33470370983946
0.0025                    5.0E-4                   300.4573214655893
0.0025                    0.0015                   299.94703663593504
0.0025                    0.0025                   299.53700652140066
0.0025                    0.0035                   299.1269764068663
0.0025                    0.0045                   298.38319195363516
0.0025                    0.0055                   297.58771428558464
0.0025                    0.0065                   296.9441064914089
0.0025                    0.0075                   296.30887255624623
0.0025                    0.0085                   295.7052498310906
0.0025                    0.0095                   295.73343850500714
0.0025                    0.0105                   295.5892630211019
0.0025                    0.0115                   294.9360679622637
0.0025                    0.0125                   294.28287290342547
0.0025                    0.0135                   293.8375184792858
0.0025                    0.0145                   293.57250518822246
0.0025                    0.0155                   293.4079779830314
0.0025                    0.0165                   293.2434507778403
0.0025                    0.0175                   293.183118645644
0.0025                    0.0185                   293.2204237100524
0.0025                    0.0195                   293.34639000015375
0.0025                    0.0205                   293.47235629025516
0.0025                    0.0215                   293.491511074081
0.0025                    0.0225                   293.4840425034649
0.0025                    0.0235                   293.4966754326773
0.0025                    0.0245                   293.5091292303316
0.0025                    0.0255                   293.5210730348494
0.0025                    0.0265                   293.5330168393672
0.0025                    0.0275                   293.5335745496791
0.0025                    0.0285                   293.5259186734506
0.0025                    0.0295                   293.5146201836749
0.0025                    0.0305                   293.5007473059601
0.0025                    0.0315                   293.48687442824536
0.0035                    -0.0315                  311.6755990720787
0.0035                    -0.0305                  310.5838170837434
0.0035                    -0.0295                  309.492035095408
0.0035                    -0.0285                  308.5211848604528
0.0035                    -0.0275                  308.0011616772641
0.0035                    -0.0265                  307.5092694073999
0.0035                    -0.0255                  307.0173771375356
0.0035                    -0.0245                  306.44985179450947
0.0035                    -0.0235                  306.1933463938782
0.0035                    -0.0225                  305.9813358050417
0.0035                    -0.0215                  305.7693252162052
0.0035                    -0.0205                  305.55731462736867
0.0035                    -0.0195                  305.3179416601753
0.0035                    -0.0185                  305.12430020194716
0.0035                    -0.0175                  304.930658743719
0.0035                    -0.0165                  304.7370172854909
0.0035                    -0.0155                  304.54337582726276
0.0035                    -0.0145                  304.3803772596664
0.0035                    -0.0135                  304.189290205358
0.0035                    -0.0125                  303.9982031510496
0.0035                    -0.0115                  303.8071160967412
0.0035                    -0.0105                  303.61602904243273
0.0035                    -0.0095                  303.46898599747624
0.0035                    -0.0085                  303.30130524827365
0.0035                    -0.0075                  303.13362449907106
0.0035                    -0.0065                  302.96594374986853
0.0035                    -0.0055                  302.7924710327646
0.0035                    -0.0045                  302.5304985706896
0.0035                    -0.0035                  302.35850978036626
0.0035                    -0.0025                  302.1865209900429
0.0035                    -0.0015                  302.01453219971955
0.0035                    -5.0E-4                  301.72262407304646
0.0035                    5.0E-4                   301.02683891698825
0.0035                    0.0015                   300.6168088024539
0.0035                    0.0025                   300.2067786879195
0.0035                    0.0035                   299.7967485733851
0.0035                    0.0045                   299.2706479334343
0.0035                    0.0055                   298.566715046182
0.0035                    0.0065                   297.9314811110194
0.0035                    0.0075                   297.2962471758568
0.0035                    0.0085                   296.66101324069416
0.0035                    0.0095                   296.3648894924654
0.0035                    0.0105                   295.7429381057786
0.0035                    0.0115                   295.0897430469404
0.0035                    0.0125                   294.4365479881022
0.0035                    0.0135                   293.842282233747
0.0035                    0.0145                   293.6389963884901
0.0035                    0.0155                   293.474469183299
0.0035                    0.0165                   293.3099419781079
0.0035                    0.0175                   293.17713170702194
0.0035                    0.0185                   293.2792054962993
0.0035                    0.0195                   293.40517178640073
0.0035                    0.0205                   293.5311380765021
0.0035                    0.0215                   293.60081367511145
0.0035                    0.0225                   293.6134466043239
0.0035                    0.0235                   293.62607953353637
0.0035                    0.0245                   293.63859950350627
0.0035                    0.0255                   293.65054330802406
0.0035                    0.0265                   293.6624871125419
0.0035                    0.0275                   293.67443091705974
0.0035                    0.0285                   293.67289052637176
0.0035                    0.0295                   293.65901764865697
0.0035                    0.0305                   293.64514477094224
0.0035                    0.0315                   293.63127189322745
0.0045                    -0.0315                  310.91294038500814
0.0045                    -0.0305                  309.83232684603394
0.0045                    -0.0295                  309.1254845936218
0.0045                    -0.0285                  308.41864234120953
0.0045                    -0.0275                  307.85563150081043
0.0045                    -0.0265                  307.3160128444928
0.0045                    -0.0255                  306.77639418817506
0.0045                    -0.0245                  306.406991120662
0.0045                    -0.0235                  306.1834297575007
0.0045                    -0.0225                  305.9673025264233
0.0045                    -0.0215                  305.75117529534594
0.0045                    -0.0205                  305.5350480642686
0.0045                    -0.0195                  305.29665524120014
0.0045                    -0.0185                  305.100978276658
0.0045                    -0.0175                  304.90530131211585
0.0045                    -0.0165                  304.70962434757377
0.0045                    -0.0155                  304.5139473830316
0.0045                    -0.0145                  304.21974997622874
0.0045                    -0.0135                  304.0308325716522
0.0045                    -0.0125                  303.8419151670756
0.0045                    -0.0115                  303.652997762499
0.0045                    -0.0105                  303.4640803579225
0.0045                    -0.0095                  303.2652115896011
0.0045                    -0.0085                  303.09821190261505
0.0045                    -0.0075                  302.931212215629
0.0045                    -0.0065                  302.76421252864293
0.0045                    -0.0055                  302.5972128416568
0.0045                    -0.0045                  302.4489655277083
0.0045                    -0.0035                  302.27592796104
0.0045                    -0.0025                  302.1028903943717
0.0045                    -0.0015                  301.9298528277035
0.0045                    -5.0E-4                  301.7568152610351
0.0045                    5.0E-4                   301.47954696878384
0.0045                    0.0015                   301.0627460319529
0.0045                    0.0025                   300.645945095122
0.0045                    0.0035                   300.2291441582911
0.0045                    0.0045                   299.8300842778762
0.0045                    0.0055                   299.25619315164766
0.0045                    0.0065                   298.59605993946656
0.0045                    0.0075                   297.9359267272854
0.0045                    0.0085                   297.2757935151043
0.0045                    0.0095                   296.4453001320835
0.0045                    0.0105                   295.79460353011575
0.0045                    0.0115                   295.14535148451523
0.0045                    0.0125                   294.4960994389147
0.0045                    0.0135                   293.89670352332314
0.0045                    0.0145                   293.66583811230043
0.0045                    0.0155                   293.4984002410191
0.0045                    0.0165                   293.33096236973796
0.0045                    0.0175                   293.2092063958419
0.0045                    0.0185                   293.30206586954887
0.0045                    0.0195                   293.4257891166349
0.0045                    0.0205                   293.54951236372096
0.0045                    0.0215                   293.82143586579593
0.0045                    0.0225                   293.8427673596697
0.0045                    0.0235                   293.8124752167643
0.0045                    0.0245                   293.8029750384416
0.0045                    0.0255                   293.9039576369747
0.0045                    0.0265                   294.0049402355079
0.0045                    0.0275                   294.105922834041
0.0045                    0.0285                   294.0296820560514
0.0045                    0.0295                   293.889443767675
0.0045                    0.0305                   293.78954223592433
0.0045                    0.0315                   293.7756693582096
0.0055                    -0.0315                  310.455999796804
0.0055                    -0.0305                  309.7491575443918
0.0055                    -0.0295                  309.0423152919796
0.0055                    -0.0285                  308.33547303956743
0.0055                    -0.0275                  307.72969679748576
0.0055                    -0.0265                  307.1900781411681
0.0055                    -0.0255                  306.7277563196916
0.0055                    -0.0245                  306.4831021008694
0.0055                    -0.0235                  306.2432658780317
0.0055                    -0.0225                  306.02713864695426
0.0055                    -0.0215                  305.8110114158769
0.0055                    -0.0205                  305.5810076785851
0.0055                    -0.0195                  305.3332735076985
0.0055                    -0.0185                  305.10923242688295
0.0055                    -0.0175                  304.9135554623408
0.0055                    -0.0165                  304.7178784977987
0.0055                    -0.0155                  304.44832587821713
0.0055                    -0.0145                  304.0533621001281
0.0055                    -0.0135                  303.7956425269998
0.0055                    -0.0125                  303.6067251224233
0.0055                    -0.0115                  303.4178077178467
0.0055                    -0.0105                  303.2126372667957
0.0055                    -0.0095                  302.9783657969142
0.0055                    -0.0085                  302.79674825119
0.0055                    -0.0075                  302.629748564204
0.0055                    -0.0065                  302.4627488772179
0.0055                    -0.0055                  302.32086388354804
0.0055                    -0.0045                  302.2140217222223
0.0055                    -0.0035                  302.04757211623536
0.0055                    -0.0025                  301.87453454956704
0.0055                    -0.0015                  301.70149698289873
0.0055                    -5.0E-4                  301.59052007469757
0.0055                    5.0E-4                   301.5156894817853
0.0055                    0.0015                   301.0988885449544
0.0055                    0.0025                   300.6820876081235
0.0055                    0.0035                   300.26528667129253
0.0055                    0.0045                   299.92383869131015
0.0055                    0.0055                   299.5330105105663
0.0055                    0.0065                   298.8728772983852
0.0055                    0.0075                   298.21274408620405
0.0055                    0.0085                   297.50737800736715
0.0055                    0.0095                   296.555449574549
0.0055                    0.0105                   295.7536896807153
0.0055                    0.0115                   295.1044376351147
0.0055                    0.0125                   294.4551855895142
0.0055                    0.0135                   293.9956406664844
0.0055                    0.0145                   293.6525215318959
0.0055                    0.0155                   293.4850836606147
0.0055                    0.0165                   293.3176457893335
0.0055                    0.0175                   293.265684727705
0.0055                    0.0185                   293.30545266421296
0.0055                    0.0195                   293.4290225636661
0.0055                    0.0205                   293.5527458107521
0.0055                    0.0215                   293.89654242520317
0.0055                    0.0225                   294.18117922811774
0.0055                    0.0235                   294.1508870852124
0.0055                    0.0245                   294.22932651031124
0.0055                    0.0255                   294.3730962168832
0.0055                    0.0265                   294.47407881541636
0.0055                    0.0275                   294.57506141394947
0.0055                    0.0285                   294.4499413681756
0.0055                    0.0295                   294.3097030797991
0.0055                    0.0305                   294.1694647914226
0.0055                    0.0315                   294.0292265030462
0.0065                    -0.0315                  310.38770198311875
0.0065                    -0.0305                  309.6708818365286
0.0065                    -0.0295                  308.95914599033745
0.0065                    -0.0285                  308.2523037379252
0.0065                    -0.0275                  307.60376209416114
0.0065                    -0.0265                  307.0641434378434
0.0065                    -0.0255                  306.8038672998991
0.0065                    -0.0245                  306.5592130810769
0.0065                    -0.0235                  306.3145588622548
0.0065                    -0.0225                  306.0869747674853
0.0065                    -0.0215                  305.86641787024837
0.0065                    -0.0205                  305.6186836993618
0.0065                    -0.0195                  305.3709495284752
0.0065                    -0.0185                  305.1232153575886
0.0065                    -0.0175                  304.9218096125657
0.0065                    -0.0165                  304.7235198402262
0.0065                    -0.0155                  304.3285560621371
0.0065                    -0.0145                  303.9335922840481
0.0065                    -0.0135                  303.56045248234756
0.0065                    -0.0125                  303.371535077771
0.0065                    -0.0115                  303.1826176731944
0.0065                    -0.0105                  302.9500622076654
0.0065                    -0.0095                  302.71579073778395
0.0065                    -0.0085                  302.49528459976506
0.0065                    -0.0075                  302.328284912779
0.0065                    -0.0065                  302.1614202398876
0.0065                    -0.0055                  302.0545780785619
0.0065                    -0.0045                  301.9477359172362
0.0065                    -0.0035                  301.81921627143066
0.0065                    -0.0025                  301.64617870476235
0.0065                    -0.0015                  301.4879081701765
0.0065                    -5.0E-4                  301.4261930344199
0.0065                    5.0E-4                   301.36447789866327
0.0065                    0.0015                   301.13503105795587
0.0065                    0.0025                   300.718230121125
0.0065                    0.0035                   300.33631835976877
0.0065                    0.0045                   300.0175931047442
0.0065                    0.0055                   299.6988678497196
0.0065                    0.0065                   299.1496946573039
0.0065                    0.0075                   298.4895614451227
0.0065                    0.0085                   297.6175274498326
0.0065                    0.0095                   296.66559901701453
0.0065                    0.0105                   295.7136705841963
0.0065                    0.0115                   295.0635237857142