% Model:              SIMBench260525.mph
% Version:            COMSOL 6.2.0.339
% Date:               May 27 2026, 17:32
% Dimension:          2
% Nodes:              4096
% Expressions:        1
% Description:        温度
% Length unit:        m
% x                       y                        T (K)
5.0E-4                    -0.0315                  393.2418676232883
5.0E-4                    -0.0305                  392.57305196268254
5.0E-4                    -0.0295                  391.89159063018366
5.0E-4                    -0.0285                  390.7061658317763
5.0E-4                    -0.0275                  389.17880472468613
5.0E-4                    -0.0265                  387.5812593520482
5.0E-4                    -0.0255                  384.55113196034654
5.0E-4                    -0.0245                  380.8467008257809
5.0E-4                    -0.0235                  376.65057141807404
5.0E-4                    -0.0225                  370.00286436844317
5.0E-4                    -0.0215                  363.055259261242
5.0E-4                    -0.0205                  355.4313879303911
5.0E-4                    -0.0195                  347.4714336542275
5.0E-4                    -0.0185                  340.00168389507814
5.0E-4                    -0.0175                  333.5949837414581
5.0E-4                    -0.0165                  329.2097452237746
5.0E-4                    -0.0155                  324.96399544480437
5.0E-4                    -0.0145                  322.36254164883303
5.0E-4                    -0.0135                  320.56058594975093
5.0E-4                    -0.0125                  318.731724430835
5.0E-4                    -0.0115                  317.80633390082517
5.0E-4                    -0.0105                  316.84838227796126
5.0E-4                    -0.0095                  315.89043065509736
5.0E-4                    -0.0085                  315.43675582070233
5.0E-4                    -0.0075                  314.6040548208066
5.0E-4                    -0.0065                  313.77135382091086
5.0E-4                    -0.0055                  313.49123530502493
5.0E-4                    -0.0045                  312.8034913382538
5.0E-4                    -0.0035                  312.15652320881907
5.0E-4                    -0.0025                  311.9302755504925
5.0E-4                    -0.0015                  311.334219857668
5.0E-4                    -5.0E-4                  310.8274119020767
5.0E-4                    5.0E-4                   310.3163392978788
5.0E-4                    0.0015                   309.49472763438956
5.0E-4                    0.0025                   308.7393780029227
5.0E-4                    0.0035                   307.29245933105176
5.0E-4                    0.0045                   305.4800723039409
5.0E-4                    0.0055                   303.60217747885474
5.0E-4                    0.0065                   301.02740716793835
5.0E-4                    0.0075                   298.3237289336947
5.0E-4                    0.0085                   294.81651430805977
5.0E-4                    0.0095                   294.2958521258432
5.0E-4                    0.0105                   293.96165778063727
5.0E-4                    0.0115                   293.63509356980416
5.0E-4                    0.0125                   293.69736094326703
5.0E-4                    0.0135                   293.75962831672985
5.0E-4                    0.0145                   293.33528734257646
5.0E-4                    0.0155                   293.2222550150286
5.0E-4                    0.0165                   293.19588313220464
5.0E-4                    0.0175                   293.25466324872514
5.0E-4                    0.0185                   293.43384714785395
5.0E-4                    0.0195                   293.3903093873375
5.0E-4                    0.0205                   293.346771626821
5.0E-4                    0.0215                   293.4160658143354
5.0E-4                    0.0225                   293.4979213582564
5.0E-4                    0.0235                   293.9361538966698
5.0E-4                    0.0245                   295.3523206180561
5.0E-4                    0.0255                   296.55039040251495
5.0E-4                    0.0265                   298.46330745192245
5.0E-4                    0.0275                   302.7954602666848
5.0E-4                    0.0285                   307.4181402033282
5.0E-4                    0.0295                   310.85686952059217
5.0E-4                    0.0305                   313.38751532932105
5.0E-4                    0.0315                   315.9181611380499
0.0015                    -0.0315                  391.268561585125
0.0015                    -0.0305                  391.2068168699571
0.0015                    -0.0295                  390.40238836195
0.0015                    -0.0285                  389.25251002640675
0.0015                    -0.0275                  387.899954434062
0.0015                    -0.0265                  385.6685674517871
0.0015                    -0.0255                  383.15426018761343
0.0015                    -0.0245                  379.6875544760515
0.0015                    -0.0235                  373.87281497880394
0.0015                    -0.0225                  367.6275296712055
0.0015                    -0.0215                  360.7017189872118
0.0015                    -0.0205                  351.72531520906153
0.0015                    -0.0195                  342.7849518988693
0.0015                    -0.0185                  335.4661782930964
0.0015                    -0.0175                  330.4269666645163
0.0015                    -0.0165                  325.5643852070035
0.0015                    -0.0155                  321.8487910889498
0.0015                    -0.0145                  320.53819616869964
0.0015                    -0.0135                  319.049185408618
0.0015                    -0.0125                  317.62613686828666
0.0015                    -0.0115                  317.17754915804846
0.0015                    -0.0105                  316.4907412926015
0.0015                    -0.0095                  315.85948787906227
0.0015                    -0.0085                  315.69117339059073
0.0015                    -0.0075                  315.1297167894165
0.0015                    -0.0065                  314.744401912222
0.0015                    -0.0055                  314.7454246198622
0.0015                    -0.0045                  314.2531219834775
0.0015                    -0.0035                  314.0679029654386
0.0015                    -0.0025                  314.1405538721141
0.0015                    -0.0015                  313.6508623835335
0.0015                    -5.0E-4                  313.4475359827863
0.0015                    5.0E-4                   313.3514246114741
0.0015                    0.0015                   312.55455476063753
0.0015                    0.0025                   311.9317291932151
0.0015                    0.0035                   311.2157472318239
0.0015                    0.0045                   309.396345297995
0.0015                    0.0055                   307.4323514811178
0.0015                    0.0065                   305.3003181211973
0.0015                    0.0075                   302.2808618471218
0.0015                    0.0085                   298.18062952331667
0.0015                    0.0095                   295.40401267777935
0.0015                    0.0105                   295.02095549403214
0.0015                    0.0115                   294.5826199475765
0.0015                    0.0125                   294.5234354749472
0.0015                    0.0135                   293.9434364783845
0.0015                    0.0145                   293.4534006928239
0.0015                    0.0155                   293.2504125524869
0.0015                    0.0165                   293.2210290929239
0.0015                    0.0175                   293.3255543119096
0.0015                    0.0185                   293.5936625052325
0.0015                    0.0195                   293.7585807903105
0.0015                    0.0205                   293.7648941528143
0.0015                    0.0215                   293.8363835194801
0.0015                    0.0225                   293.9163060310788
0.0015                    0.0235                   295.4124428223095
0.0015                    0.0245                   297.14289600182576
0.0015                    0.0255                   298.5490841748913
0.0015                    0.0265                   301.36084013121615
0.0015                    0.0275                   304.74975390615276
0.0015                    0.0285                   309.07061322485885
0.0015                    0.0295                   311.66889786927993
0.0015                    0.0305                   314.2291282067787
0.0015                    0.0315                   316.0459094573677
0.0025                    -0.0315                  389.2952555469617
0.0025                    -0.0305                  388.5754323575805
0.0025                    -0.0295                  387.59772797808927
0.0025                    -0.0285                  386.64065720207975
0.0025                    -0.0275                  385.24303157161756
0.0025                    -0.0265                  382.91592687050104
0.0025                    -0.0255                  380.5472619877004
0.0025                    -0.0245                  376.53767136641164
0.0025                    -0.0235                  370.3761485065181
0.0025                    -0.0225                  364.21462564662465
0.0025                    -0.0215                  356.5073476413121
0.0025                    -0.0205                  347.4244221806292
0.0025                    -0.0195                  338.34149671994646
0.0025                    -0.0185                  332.2195357688967
0.0025                    -0.0175                  327.18200959263254
0.0025                    -0.0165                  322.14448341636825
0.0025                    -0.0155                  320.2143409348494
0.0025                    -0.0145                  318.8989035565238
0.0025                    -0.0135                  317.5834661781982
0.0025                    -0.0125                  317.13238300770564
0.0025                    -0.0115                  316.6816739646465
0.0025                    -0.0105                  316.25282679744095
0.0025                    -0.0095                  316.17488564542117
0.0025                    -0.0085                  316.0057940427313
0.0025                    -0.0075                  315.9713480680268
0.0025                    -0.0065                  315.98273064225714
0.0025                    -0.0055                  315.98357731571775
0.0025                    -0.0045                  316.087355739831
0.0025                    -0.0035                  316.159991846822
0.0025                    -0.0025                  316.2326279538129
0.0025                    -0.0015                  316.25692915714575
0.0025                    -5.0E-4                  316.16082983288254
0.0025                    5.0E-4                   316.06473050861933
0.0025                    0.0015                   315.6830622635316
0.0025                    0.0025                   315.07848411862415
0.0025                    0.0035                   314.47390597371657
0.0025                    0.0045                   313.0803356207637
0.0025                    0.0055                   311.09678245473356
0.0025                    0.0065                   309.11322928870334
0.0025                    0.0075                   305.9040861960491
0.0025                    0.0085                   301.85790532259705
0.0025                    0.0095                   297.8227997457502
0.0025                    0.0105                   296.6839358425033
0.0025                    0.0115                   296.2374285665111
0.0025                    0.0125                   294.78774317612465
0.0025                    0.0135                   294.09394104688545
0.0025                    0.0145                   293.5715140430713
0.0025                    0.0155                   293.3302172805681
0.0025                    0.0165                   293.2790960778534
0.0025                    0.0175                   293.3964453750941
0.0025                    0.0185                   293.695527667525
0.0025                    0.0195                   294.04419687765096
0.0025                    0.0205                   294.39068569513057
0.0025                    0.0215                   294.4810553341846
0.0025                    0.0225                   295.4062401466069
0.0025                    0.0235                   297.21054208104465
0.0025                    0.0245                   299.01484401548254
0.0025                    0.0255                   301.5067762522112
0.0025                    0.0265                   304.27336253143443
0.0025                    0.0275                   307.07012876683467
0.0025                    0.0285                   309.85162954979523
0.0025                    0.0295                   312.3888206196622
0.0025                    0.0305                   314.54743883315757
0.0025                    0.0315                   316.1422356267754
0.0035                    -0.0315                  385.81196706082545
0.0035                    -0.0305                  384.8042489543803
0.0035                    -0.0295                  383.8186185944394
0.0035                    -0.0285                  382.65638838432176
0.0035                    -0.0275                  380.62638941024466
0.0035                    -0.0265                  378.4889700721237
0.0035                    -0.0255                  375.67787256041356
0.0035                    -0.0245                  370.0473164930389
0.0035                    -0.0235                  364.09332425413936
0.0035                    -0.0225                  357.476180137617
0.0035                    -0.0215                  348.99715018393346
0.0035                    -0.0205                  340.0592906531567
0.0035                    -0.0195                  332.53847222319956
0.0035                    -0.0185                  328.4419534655772
0.0035                    -0.0175                  323.5064896809403
0.0035                    -0.0165                  320.3388724582566
0.0035                    -0.0155                  319.70232337053653
0.0035                    -0.0145                  318.386885992211
0.0035                    -0.0135                  317.77553010316205
0.0035                    -0.0125                  317.73786907188173
0.0035                    -0.0115                  317.28716002882265
0.0035                    -0.0105                  317.4359721566823
0.0035                    -0.0095                  317.7600953667304
0.0035                    -0.0085                  317.59100376404047
0.0035                    -0.0075                  318.1235784247264
0.0035                    -0.0065                  318.5969370366268
0.0035                    -0.0055                  318.5977837100873
0.0035                    -0.0045                  319.1259370618335
0.0035                    -0.0035                  319.46145305737
0.0035                    -0.0025                  319.534089164361
0.0035                    -0.0015                  319.55159051756857
0.0035                    -5.0E-4                  319.49762749306933
0.0035                    5.0E-4                   319.32009148934503
0.0035                    0.0015                   318.57307054000404
0.0035                    0.0025                   317.93437192442525
0.0035                    0.0035                   317.14605684196675
0.0035                    0.0045                   315.87835956853024
0.0035                    0.0055                   313.969498366332
0.0035                    0.0065                   312.13871445028457
0.0035                    0.0075                   310.36890890946273
0.0035                    0.0085                   306.32272803601074
0.0035                    0.0095                   302.3302753594527
0.0035                    0.0105                   299.61728182258867
0.0035                    0.0115                   298.4811021549451
0.0035                    0.0125                   295.21411307244347
0.0035                    0.0135                   294.30841995790286
0.0035                    0.0145                   293.7409933414931
0.0035                    0.0155                   293.35019835055266
0.0035                    0.0165                   293.3134002420577
0.0035                    0.0175                   293.55294425727254
0.0035                    0.0185                   293.8794979677591
0.0035                    0.0195                   294.87021462483335
0.0035                    0.0205                   296.15053952553853
0.0035                    0.0215                   296.24295679919175
0.0035                    0.0225                   298.5999547536031
0.0035                    0.0235                   300.557116595318
0.0035                    0.0245                   302.55040173121375
0.0035                    0.0255                   304.94452778381674
0.0035                    0.0265                   307.71111406303993
0.0035                    0.0275                   308.6025051099781
0.0035                    0.0285                   310.52019646705634
0.0035                    0.0295                   312.9477604517953
0.0035                    0.0305                   315.0049714689229
0.0035                    0.0315                   316.48334632194815
0.0045                    -0.0315                  382.09881753048535
0.0045                    -0.0305                  381.0732865919441
0.0045                    -0.0295                  380.04327144266324
0.0045                    -0.0285                  378.0258988769932
0.0045                    -0.0275                  375.99772929279953
0.0045                    -0.0265                  373.9695597086059
0.0045                    -0.0255                  369.09115906421187
0.0045                    -0.0245                  363.4606029968371
0.0045                    -0.0235                  357.8105000017605
0.0045                    -0.0225                  349.74569252230805
0.0045                    -0.0215                  341.2666625686245
0.0045                    -0.0205                  332.6941591256841
0.0045                    -0.0195                  328.29576014810976
0.0045                    -0.0185                  324.1992413904875
0.0045                    -0.0175                  320.0359710178398
0.0045                    -0.0165                  319.40950056844804
0.0045                    -0.0155                  318.78303011905626
0.0045                    -0.0145                  318.0652195362557
0.0045                    -0.0135                  318.09200764744213
0.0045                    -0.0125                  318.1187957586285
0.0045                    -0.0115                  318.12428805999343
0.0045                    -0.0105                  318.6191175159237
0.0045                    -0.0095                  319.1139469718538
0.0045                    -0.0085                  319.51244879114427
0.0045                    -0.0075                  320.2758087814261
0.0045                    -0.0065                  321.039168771708
0.0045                    -0.0055                  321.5028741782592
0.0045                    -0.0045                  322.1059616243682
0.0045                    -0.0035                  322.70904907047714
0.0045                    -0.0025                  322.8020652378365
0.0045                    -0.0015                  322.81956463120514
0.0045                    -5.0E-4                  322.83442515325606
0.0045                    5.0E-4                   322.2614645556742
0.0045                    0.0015                   321.51444360633326
0.0045                    0.0025                   320.79025973022635
0.0045                    0.0035                   319.59324667246244
0.0045                    0.0045                   318.32554939902593
0.0045                    0.0055                   316.8732706904406
0.0045                    0.0065                   315.205348574357
0.0045                    0.0075                   313.5374264582734
0.0045                    0.0085                   310.8137938175324
0.0045                    0.0095                   306.83775097315504
0.0045                    0.0105                   302.86170812877765
0.0045                    0.0115                   299.7864336419052
0.0045                    0.0125                   296.5194445594035
0.0045                    0.0135                   294.5767839999522
0.0045                    0.0145                   294.049034799026
0.0045                    0.0155                   293.48159410002376
0.0045                    0.0165                   293.4538987481588
0.0045                    0.0175                   293.7690884161467
0.0045                    0.0185                   294.1035923520259
0.0045                    0.0195                   295.7887734843638
0.0045                    0.0205                   297.4739546167017
0.0045                    0.0215                   299.3061328494232
0.0045                    0.0225                   301.6631308038346
0.0045                    0.0235                   303.9327642656174
0.0045                    0.0245                   306.1701622896524
0.0045                    0.0255                   308.26299185620854
0.0045                    0.0265                   308.89561274127504
0.0045                    0.0275                   309.4252595337802
0.0045                    0.0285                   311.4639500339381
0.0045                    0.0295                   313.67681688423147
0.0045                    0.0305                   315.3294202019436
0.0045                    0.0315                   316.6748584618144
0.0055                    -0.0315                  378.38566800014513
0.0055                    -0.0305                  377.22355517435534
0.0055                    -0.0295                  376.01455028774217
0.0055                    -0.0285                  373.1299532100053
0.0055                    -0.0275                  371.08718566539983
0.0055                    -0.0265                  367.8462747801455
0.0055                    -0.0255                  362.7292586504757
0.0055                    -0.0245                  357.0813938352659
0.0055                    -0.0235                  350.8731238055784
0.0055                    -0.0225                  343.2208686995874
0.0055                    -0.0215                  334.7444755451713
0.0055                    -0.0205                  329.23034861336987
0.0055                    -0.0195                  325.50002287105286
0.0055                    -0.0185                  321.38943583287676
0.0055                    -0.0175                  319.81731522310514
0.0055                    -0.0165                  319.29494475834747
0.0055                    -0.0155                  318.6611703152883
0.0055                    -0.0145                  318.79998778801075
0.0055                    -0.0135                  318.8954670154748
0.0055                    -0.0125                  318.9188228922509
0.0055                    -0.0115                  319.80060074679375
0.0055                    -0.0105                  320.3344709422604
0.0055                    -0.0095                  320.82794676233755
0.0055                    -0.0085                  321.9440785273115
0.0055                    -0.0075                  322.7073731176806
0.0055                    -0.0065                  323.4628253203131
0.0055                    -0.0055                  324.1270229357077
0.0055                    -0.0045                  324.73006690220024
0.0055                    -0.0035                  325.18534627252797
0.0055                    -0.0025                  325.1301198378753
0.0055                    -0.0015                  325.1474379822142
0.0055                    -5.0E-4                  324.83447243599556
0.0055                    5.0E-4                   323.9630366912868
0.0055                    0.0015                   323.2046005876839
0.0055                    0.0025                   321.9179524756078
0.0055                    0.0035                   320.39653996818674
0.0055                    0.0045                   319.09129113570026
0.0055                    0.0055                   317.2218800299398
0.0055                    0.0065                   315.34991228133913
0.0055                    0.0075                   313.56187664361624
0.0055                    0.0085                   311.9011660077695
0.0055                    0.0095                   308.0295238843869
0.0055                    0.0105                   303.95300009269545
0.0055                    0.0115                   300.13373982055293
0.0055                    0.0125                   296.9114071889463
0.0055                    0.0135                   294.57874728139757
0.0055                    0.0145                   293.9170239541225
0.0055                    0.0155                   293.4692016076427
0.0055                    0.0165                   293.4202919520817
0.0055                    0.0175                   293.73548162006966
0.0055                    0.0185                   294.7553451109566
0.0055                    0.0195                   296.3634478939355
0.0055                    0.0205                   298.1853601569177
0.0055                    0.0215                   300.64919671009284
0.0055                    0.0225                   302.9975545144283
0.0055                    0.0235                   304.21793077648033
0.0055                    0.0245                   305.6832681734218
0.0055                    0.0255                   307.50264673519223
0.0055                    0.0265                   309.04598116114687
0.0055                    0.0275                   310.24801395758226
0.0055                    0.0285                   312.0556472941779
0.0055                    0.0295                   313.65205274181164
0.0055                    0.0305                   315.25397671261493
0.0055                    0.0315                   316.8588362233622
0.0065                    -0.0315                  374.68532989242357
0.0065                    -0.0305                  373.2271739192359
0.0065                    -0.0295                  371.8747487560413
0.0065                    -0.0285                  368.9901516783044
0.0065                    -0.0275                  366.0460760397944
0.0065                    -0.0265                  361.13665578039854
0.0065                    -0.0255                  356.22723552100257
0.0065                    -0.0245                  350.7252490991608
0.0065                    -0.0235                  343.72122818416165
0.0065                    -0.0225                  336.6839127723837
0.0065                    -0.0215                  329.53546650680306
0.0065                    -0.0205                  326.24939948336333
0.0065                    -0.0195                  322.9633324599236
0.0065                    -0.0185                  319.99128427521134
0.0065                    -0.0175                  319.70247538890834
0.0065                    -0.0165                  319.39189502873705
0.0065                    -0.0155                  319.13325665785544
0.0065                    -0.0145                  319.52312341020587
0.0065                    -0.0135                  319.84056501583643
0.0065                    -0.0125                  320.3306819173449
0.0065                    -0.0115                  321.3579305252714
0.0065                    -0.0105                  322.2149651258912
0.0065                    -0.0095                  323.0895700839781
0.0065                    -0.0085                  324.244662969999
0.0065                    -0.0075                  325.22713833973825
0.0065                    -0.0065                  325.9299239074389
0.0065                    -0.0055                  326.6065185479724
0.0065                    -0.0045                  327.2417320011931
0.0065                    -0.0035                  327.27896544340433
0.0065                    -0.0025                  327.19374452087493
0.0065                    -0.0015                  327.1789260342567
0.0065                    -5.0E-4                  326.275944953092
0.0065                    5.0E-4                   325.32189335838035
0.0065                    0.0015                   324.41681430188714
0.0065                    0.0025                   322.60417548826854
0.0065                    0.0035                   320.79153667464993
0.0065                    0.0045                   319.21549276109255
0.0065                    0.0055                   317.12480731816726
0.0065                    0.0065                   315.0787087527188
0.0065                    0.0075                   313.3668263062648
0.0065                    0.0085                   311.7086720743388
0.0065                    0.0095                   308.9369946016035
0.0065                    0.0105                   304.6737691519182