% Model:              SIMBench260525.mph
% Version:            COMSOL 6.2.0.339
% Date:               May 27 2026, 17:39
% Dimension:          2
% Nodes:              4096
% Expressions:        1
% Description:        温度
% Length unit:        m
% x                       y                        T (K)
% mirrored_by_python_y_to_minus_y, coord_match_decimals=12
0.0005 -0.0315 316.383534852
0.0005 -0.0305 314.720890442
0.0005 -0.0295 313.058246031
0.0005 -0.0285 310.852567015
0.0005 -0.0275 308.676768489
0.0005 -0.0265 306.845231439
0.0005 -0.0255 305.832641769
0.0005 -0.0245 304.645083003
0.0005 -0.0235 303.886022609
0.0005 -0.0225 302.811663403
0.0005 -0.0215 301.670502446
0.0005 -0.0205 300.631829956
0.0005 -0.0195 298.617640291
0.0005 -0.0185 296.609866735
0.0005 -0.0175 295.336592231
0.0005 -0.0165 294.736474927
0.0005 -0.0155 293.875150713
0.0005 -0.0145 293.389210502
0.0005 -0.0135 293.32128319
0.0005 -0.0125 293.299185738
0.0005 -0.0115 293.362152403
0.0005 -0.0105 293.425119068
0.0005 -0.0095 293.245606554
0.0005 -0.0085 293.185986503
0.0005 -0.0075 293.218369466
0.0005 -0.0065 293.346176788
0.0005 -0.0055 293.686986702
0.0005 -0.0045 293.622894142
0.0005 -0.0035 293.558801581
0.0005 -0.0025 293.717542536
0.0005 -0.0015 293.976666199
0.0005 -0.0005 294.235789863
0.0005 0.0005 296.675426939
0.0005 0.0015 298.416276657
0.0005 0.0025 300.170777011
0.0005 0.0035 302.248462994
0.0005 0.0045 304.213447035
0.0005 0.0055 306.035943185
0.0005 0.0065 306.873990137
0.0005 0.0075 307.850865725
0.0005 0.0085 308.681082668
0.0005 0.0095 309.208650857
0.0005 0.0105 309.979691962
0.0005 0.0115 310.563249881
0.0005 0.0125 311.062015814
0.0005 0.0135 311.797277889
0.0005 0.0145 312.331001022
0.0005 0.0155 312.930549175
0.0005 0.0165 313.704920306
0.0005 0.0175 314.299910098
0.0005 0.0185 315.148012695
0.0005 0.0195 316.124915667
0.0005 0.0205 316.941934374
0.0005 0.0215 318.265832472
0.0005 0.0225 319.688882937
0.0005 0.0235 321.120880393
0.0005 0.0245 323.607881302
0.0005 0.0255 326.159220486
0.0005 0.0265 329.191053461
0.0005 0.0275 332.579208207
0.0005 0.0285 335.967362952
0.0005 0.0295 339.268749464
0.0005 0.0305 341.047552041
0.0005 0.0315 342.815347568
0.0015 -0.0315 315.816503575
0.0015 -0.0305 314.291095783
0.0015 -0.0295 312.362863112
0.0015 -0.0285 310.116538229
0.0015 -0.0275 307.930635793
0.0015 -0.0265 306.787621697
0.0015 -0.0255 306.099703492
0.0015 -0.0245 304.937411451
0.0015 -0.0235 304.596968152
0.0015 -0.0225 304.071393191
0.0015 -0.0215 303.064604193
0.0015 -0.0205 302.378412007
0.0015 -0.0195 300.955375721
0.0015 -0.0185 299.060556859
0.0015 -0.0175 297.24661214
0.0015 -0.0165 296.447764359
0.0015 -0.0155 295.064026327
0.0015 -0.0145 293.742060315
0.0015 -0.0135 293.688026096
0.0015 -0.0125 293.701019995
0.0015 -0.0115 293.741214947
0.0015 -0.0105 293.562839454
0.0015 -0.0095 293.277807915
0.0015 -0.0085 293.202677405
0.0015 -0.0075 293.244448994
0.0015 -0.0065 293.548959812
0.0015 -0.0055 293.9201667
0.0015 -0.0045 294.266878737
0.0015 -0.0035 294.259916831
0.0015 -0.0025 294.463151527
0.0015 -0.0015 294.693376027
0.0015 -0.0005 296.44306991
0.0015 0.0005 299.408261854
0.0015 0.0015 301.556371548
0.0015 0.0025 303.563418693
0.0015 0.0035 305.722581523
0.0015 0.0045 307.726934792
0.0015 0.0055 308.778455619
0.0015 0.0065 309.479840846
0.0015 0.0075 310.42167872
0.0015 0.0085 310.779882211
0.0015 0.0095 310.982407755
0.0015 0.0105 311.722741571
0.0015 0.0115 311.877137329
0.0015 0.0125 311.954354536
0.0015 0.0135 312.68961661
0.0015 0.0145 312.865503947
0.0015 0.0155 313.067155667
0.0015 0.0165 313.829601717
0.0015 0.0175 314.176419961
0.0015 0.0185 314.621517641
0.0015 0.0195 315.564696354
0.0015 0.0205 316.219539829
0.0015 0.0215 317.049668963
0.0015 0.0225 318.475599896
0.0015 0.0235 319.914224689
0.0015 0.0245 321.673395145
0.0015 0.0255 324.440461911
0.0015 0.0265 327.712727847
0.0015 0.0275 331.026375782
0.0015 0.0285 334.571488386
0.0015 0.0295 338.285882496
0.0015 0.0305 340.649921533
0.0015 0.0315 342.019192138
0.0025 -0.0315 315.242843755
0.0025 -0.0305 313.668915389
0.0025 -0.0295 311.657211591
0.0025 -0.0285 309.411971593
0.0025 -0.0275 307.417930158
0.0025 -0.0265 306.74481073
0.0025 -0.0255 306.161148806
0.0025 -0.0245 305.792427327
0.0025 -0.0235 305.491777526
0.0025 -0.0225 305.191127725
0.0025 -0.0215 304.628324479
0.0025 -0.0205 303.942850306
0.0025 -0.0195 303.178345197
0.0025 -0.0185 301.40964223
0.0025 -0.0175 299.595535009
0.0025 -0.0165 298.007164028
0.0025 -0.0155 296.521042627
0.0025 -0.0145 295.034921225
0.0025 -0.0135 294.246565797
0.0025 -0.0125 294.239713495
0.0025 -0.0115 294.005374466
0.0025 -0.0105 293.634379988
0.0025 -0.0095 293.310009276
0.0025 -0.0085 293.24338568
0.0025 -0.0075 293.383584316
0.0025 -0.0065 293.751742835
0.0025 -0.0055 294.130117634
0.0025 -0.0045 294.665493321
0.0025 -0.0035 295.850794543
0.0025 -0.0025 296.053092627
0.0025 -0.0015 296.533466906
0.0025 -0.0005 299.378414545
0.0025 0.0005 302.249449847
0.0025 0.0015 304.821910988
0.0025 0.0025 306.978450605
0.0025 0.0035 309.134990221
0.0025 0.0045 310.826352109
0.0025 0.0055 311.527748583
0.0025 0.0065 312.229145057
0.0025 0.0075 312.778895873
0.0025 0.0085 312.982502369
0.0025 0.0095 313.186108865
0.0025 0.0105 313.305782978
0.0025 0.0115 313.375690076
0.0025 0.0125 313.445597175
0.0025 0.0135 313.468468853
0.0025 0.0145 313.619468994
0.0025 0.0155 313.770469135
0.0025 0.0165 313.903716692
0.0025 0.0175 314.254949415
0.0025 0.0185 314.606182138
0.0025 0.0195 315.013149004
0.0025 0.0205 315.671657845
0.0025 0.0215 316.330166686
0.0025 0.0225 317.373608633
0.0025 0.0235 318.825123024
0.0025 0.0245 320.276637415
0.0025 0.0255 322.766696106
0.0025 0.0265 326.00665256
0.0025 0.0275 329.338404903
0.0025 0.0285 333.084915661
0.0025 0.0295 336.761855392
0.0025 0.0305 339.390532035
0.0025 0.0315 341.223036707
0.0035 -0.0315 314.608491069
0.0035 -0.0305 312.902016423
0.0035 -0.0295 310.948695217
0.0035 -0.0285 309.035626488
0.0035 -0.0275 307.989168304
0.0035 -0.0265 307.808652554
0.0035 -0.0255 307.224990629
0.0035 -0.0245 307.3058275
0.0035 -0.0235 307.231748004
0.0035 -0.0225 306.886119647
0.0035 -0.0215 306.446654995
0.0035 -0.0205 305.76919873
0.0035 -0.0195 304.731172833
0.0035 -0.0185 303.345868576
0.0035 -0.0175 301.540874208
0.0035 -0.0165 300.387714458
0.0035 -0.0155 299.021249447
0.0035 -0.0145 297.379541897
0.0035 -0.0135 295.450373833
0.0035 -0.0125 295.44352153
0.0035 -0.0115 294.453229351
0.0035 -0.0105 293.660500252
0.0035 -0.0095 293.409015721
0.0035 -0.0085 293.301758953
0.0035 -0.0075 293.411878465
0.0035 -0.0065 294.079333586
0.0035 -0.0055 294.952166923
0.0035 -0.0045 295.782410254
0.0035 -0.0035 298.687004992
0.0035 -0.0025 299.603059594
0.0035 -0.0015 301.267682136
0.0035 -0.0005 304.036786407
0.0035 0.0005 306.907821708
0.0035 0.0015 308.717133298
0.0035 0.0025 310.509913236
0.0035 0.0035 312.666452852
0.0035 0.0045 313.572592379
0.0035 0.0055 314.322996007
0.0035 0.0065 315.021380117
0.0035 0.0075 315.549277485
0.0035 0.0085 315.875377426
0.0035 0.0095 316.055734497
0.0035 0.0105 316.009068872
0.0035 0.0115 316.042883744
0.0035 0.0125 316.036846012
0.0035 0.0135 315.657406396
0.0035 0.0145 315.677372356
0.0035 0.0155 315.684526396
0.0035 0.0165 315.249342952
0.0035 0.0175 315.452403269
0.0035 0.0185 315.637406896
0.0035 0.0195 315.469405583
0.0035 0.0205 316.019256808
0.0035 0.0215 316.528776294
0.0035 0.0225 316.810305756
0.0035 0.0235 318.189740236
0.0035 0.0245 319.498891728
0.0035 0.0255 320.664534416
0.0035 0.0265 323.792800552
0.0035 0.0275 327.497183219
0.0035 0.0285 331.366919203
0.0035 0.0295 335.079282091
0.0035 0.0305 337.312937013
0.0035 0.0315 339.57397726
0.0045 -0.0315 314.305204242
0.0045 -0.0305 312.358764626
0.0045 -0.0295 310.822393599
0.0045 -0.0285 309.604730532
0.0045 -0.0275 308.491924508
0.0045 -0.0265 308.414993098
0.0045 -0.0255 308.39069036
0.0045 -0.0245 308.670543542
0.0045 -0.0235 308.947478112
0.0045 -0.0225 308.556190039
0.0045 -0.0215 308.116725387
0.0045 -0.0205 307.481877675
0.0045 -0.0195 306.28400047
0.0045 -0.0185 305.086123265
0.0045 -0.0175 303.844552707
0.0045 -0.0165 302.691392956
0.0045 -0.0155 301.521456268
0.0045 -0.0145 299.624393338
0.0045 -0.0135 297.690970603
0.0045 -0.0125 296.220088969
0.0045 -0.0115 294.958036886
0.0045 -0.0105 293.695984803
0.0045 -0.0095 293.534985041
0.0045 -0.0085 293.392949931
0.0045 -0.0075 293.653426316
0.0045 -0.0065 294.69169002
0.0045 -0.0055 295.680552174
0.0045 -0.0045 297.718438258
0.0045 -0.0035 300.623032995
0.0045 -0.0025 303.25067299
0.0045 -0.0015 306.001897365
0.0045 -0.0005 308.75312174
0.0045 0.0005 311.061879167
0.0045 0.0015 312.621684829
0.0045 0.0025 314.181490491
0.0045 0.0035 315.489379317
0.0045 0.0045 316.299791095
0.0045 0.0055 317.110202873
0.0045 0.0065 317.710979299
0.0045 0.0075 318.238876666
0.0045 0.0085 318.766774034
0.0045 0.0095 318.796295022
0.0045 0.0105 318.749629397
0.0045 0.0115 318.710077412
0.0045 0.0125 318.430215104
0.0045 0.0135 318.050775489
0.0045 0.0145 317.735275717
0.0045 0.0155 317.385409703
0.0045 0.0165 316.95022626
0.0045 0.0175 316.649857122
0.0045 0.0185 316.519525245
0.0045 0.0195 316.351523932
0.0045 0.0205 316.366855772
0.0045 0.0215 316.649688499
0.0045 0.0225 316.931217961
0.0045 0.0235 317.532921873
0.0045 0.0245 318.698564561
0.0045 0.0255 319.86420725
0.0045 0.0265 321.798583022
0.0045 0.0275 325.672639925
0.0045 0.0285 329.546696828
0.0045 0.0295 333.34438379
0.0045 0.0305 335.796785651
0.0045 0.0315 338.260588304
0.0055 -0.0315 314.015848145
0.0055 -0.0305 312.439946514
0.0055 -0.0295 311.069838222
0.0055 -0.0285 310.045396293
0.0055 -0.0275 308.994680713
0.0055 -0.0265 309.190958645
0.0055 -0.0255 309.470153786
0.0055 -0.0245 309.761121751
0.0055 -0.0235 309.713063045
0.0055 -0.0225 309.200046385
0.0055 -0.0215 308.752330894
0.0055 -0.0205 307.301217376
0.0055 -0.0195 305.933985813
0.0055 -0.0185 304.731002292
0.0055 -0.0175 303.490574792
0.0055 -0.0165 302.357684228
0.0055 -0.0155 301.358983626
0.0055 -0.0145 300.018518422
0.0055 -0.0135 298.082917366
0.0055 -0.0125 296.279150565
0.0055 -0.0115 294.947434564
0.0055 -0.0105 293.928782432
0.0055 -0.0095 293.47504437
0.0055 -0.0085 293.33300926
0.0055 -0.0075 293.804781654
0.0055 -0.0065 294.681120896
0.0055 -0.0055 296.041899641
0.0055 -0.0045 299.560792233
0.0055 -0.0035 302.464475314
0.0055 -0.0025 305.434344807
0.0055 -0.0015 308.319347473
0.0055 -0.0005 311.085329164
0.0055 0.0005 312.030194298
0.0055 0.0015 313.604553859
0.0055 0.0025 315.178649868
0.0055 0.0035 315.924649475
0.0055 0.0045 316.783264034
0.0055 0.0055 317.615222148
0.0055 0.0065 318.289604038
0.0055 0.0075 318.812450245
0.0055 0.0085 319.38498619
0.0055 0.0095 319.799161779
0.0055 0.0105 319.744912503
0.0055 0.0115 319.87761885
0.0055 0.0125 319.957263501
0.0055 0.0135 319.572561615
0.0055 0.0145 319.258070188
0.0055 0.0155 318.926127653
0.0055 0.0165 318.489653708
0.0055 0.0175 317.974155673
0.0055 0.0185 317.609162229
0.0055 0.0195 317.44247457
0.0055 0.0205 317.133546698
0.0055 0.0215 317.119690259
0.0055 0.0225 317.401674615
0.0055 0.0235 317.548752012
0.0055 0.0245 318.423129668
0.0055 0.0255 319.634165222
0.0055 0.0265 321.069263079
0.0055 0.0275 324.05011267
0.0055 0.0285 327.950494281
0.0055 0.0295 332.188392143
0.0055 0.0305 334.572191696
0.0055 0.0315 336.947199348
0.0065 -0.0315 314.215731103
0.0065 -0.0305 312.675151366
0.0065 -0.0295 311.260107107
0.0065 -0.0285 310.320296089
0.0065 -0.0275 309.62623583
0.0065 -0.0265 310.124203634
0.0065 -0.0255 310.551225782
0.0065 -0.0245 310.837837681
0.0065 -0.0235 310.295078804
0.0065 -0.0225 309.749061104
0.0065 -0.0215 308.894424196
0.0065 -0.0205 307.11478847
0.0065 -0.0195 305.384680056
0.0065 -0.0185 304.154017168
0.0065 -0.0175 302.905937534
0.0065 -0.0165 301.712172996
0.0065 -0.0155 300.867914947
0.0065 -0.0145 300.023656898
0.0065 -0.0135 298.302914979
0.0065 -0.0125 296.518754241
0.0065 -0.0115 294.890549591
0.0065 -0.0105 294.17543577
0.0065 -0.0095 293.533837269
0.0065 -0.0085 293.529149602
0.0065 -0.0075 294.072863064
0.0065 -0.0065 294.670551772
0.0065 -0.0055 297.467878542
0.0065 -0.0045 301.069280482
0.0065 -0.0035 304.301056675
0.0065 -0.0025 307.326989338
0.0065 -0.0015 310.352922
0.0065 -0.0005 312.306877164
0.0065 0.0005 313.049616771
0.0065 0.0015 314.057470032
0.0065 0.0025 315.100813091
0.0065 0.0035 315.828390161
0.0065 0.0045 316.623599657
0.0065 0.0055 317.384535849
0.0065 0.0065 318.123067727
0.0065 0.0075 318.717710919
0.0065 0.0085 319.388008833
0.0065 0.0095 320.072279833
0.0065 0.0105 320.21365806
0.0065 0.0115 320.640323377
0.0065 0.0125 321.069722062
0.0065 0.0135 320.860874017
0.0065 0.0145 320.6275459
0.0065 0.0155 320.394217783
0.0065 0.0165 319.966528857
0.0065 0.0175 319.383011609
0.0065 0.0185 318.79949436
0.0065 0.0195 318.532612882
0.0065 0.0205 318.128769117
0.0065 0.0215 317.724925353
0.0065 0.0225 317.889414328
0.0065 0.0235 317.973659437
0.0065 0.0245 318.195903734
0.0065 0.0255 319.486381566
0.0065 0.0265 320.975979513
0.0065 0.0275 322.46557746
0.0065 0.0285 326.649696483
0.0065 0.0295 330.887594345
0.0065 0.0305 333.432168084
0.0065 0.0315 335.895624574
0.0075 -0.0315 314.358731175
0.0075 -0.0305 312.837919546
0.0075 -0.0295 311.644293782
0.0075 -0.0285 310.99410576
0.0075 -0.0275 310.300045501
0.0075 -0.0265 310.712545171
0.0075 -0.0255 311.250271468
0.0075 -0.0245 311.110615291
0.0075 -0.0235 310.466814058
0.0075 -0.0225 309.864248811
0.0075 -0.0215 307.972870281
0.0075 -0.0205 306.188868567
0.0075 -0.0195 304.49108482
0.0075 -0.0185 303.181631712
0.0075 -0.0175 301.937611713
0.0075 -0.0165 301.085717817
0.0075 -0.0155 300.294241005
0.0075 -0.0145 299.451412415
0.0075 -0.0135 298.321602737
0.0075 -0.0125 296.535556842
0.0075 -0.0115 294.980773297
0.0075 -0.0105 294.182443469
0.0075 -0.0095 293.534526605
0.0075 -0.0085 293.580548611
0.0075 -0.0075 294.126837212
0.0075 -0.0065 295.03236027
0.0075 -0.0055 298.005717099
0.0075 -0.0045 301.649198219
0.0075 -0.0035 305.477598088
0.0075 -0.0025 308.564887155
0.0075 -0.0015 311.607726244
0.0075 -0.0005 312.493090525
0.0075 0.0005 313.261877733
0.0075 0.0015 313.96295836
0.0075 0.0025 314.611397508
0.0075 0.0035 315.354804258
0.0075 0.0045 315.999750673
0.0075 0.0055 316.722225885
0.0075 0.0065 317.472465312
0.0075 0.0075 318.16781325
0.0075 0.0085 318.846592975
0.0075 0.0095 319.525372701
0.0075 0.0105 320.241962161
0.0075 0.0115 320.662266285
0.0075 0.0125 321.082570408
0.0075 0.0135 321.590860809
0.0075 0.0145 321.346839194
0.0075 0.0155 321.102817579
0.0075 0.0165 321.168893425
0.0075 0.0175 320.581213464
0.0075 0.0185 319.993533504
0.0075 0.0195 319.52371751
0.0075 0.0205 319.119727369
0.0075 0.0215 318.715737228
0.0075 0.0225 318.416793616
0.0075 0.0235 318.477556465
0.0075 0.0245 318.538319314
0.0075 0.0255 319.238149285
0.0075 0.0265 320.6168085
0.0075 0.0275 322.149676213
0.0075 0.0285 325.950462849
0.0075 0.0295 329.751249484
0.0075 0.0305 332.476342247
0.0075 0.0315 335.037963092
0.0085 -0.0315 314.539195543
0.0085 -0.0305 313.239155687
0.0085 -0.0295 312.083031498
0.0085 -0.0285 311.530906828
0.0085 -0.0275 310.973855173
0.0085 -0.0265 311.19297043
0.0085 -0.0255 311.555672575
0.0085 -0.0245 311.371147035
0.0085 -0.0235 310.2997992
0.0085 -0.0225 309.285308269
0.0085 -0.0215 306.913787882
0.0085 -0.0205 304.828032916
0.0085 -0.0195 303.360861681
0.0085 -0.0185 301.996148323
0.0085 -0.0175 300.803990124
0.0085 -0.0165 300.267432538
0.0085 -0.0155 299.66644691
0.0085 -0.0145 298.799538035
0.0085 -0.0135 297.899953899
0.0085 -0.0125 296.402481004
0.0085 -0.0115 295.156073399
0.0085 -0.0105 294.042624647
0.0085 -0.0095 293.64074391
0.0085 -0.0085 293.721405259
0.0085 -0.0075 294.056224467
0.0085 -0.0065 295.811930574
0.0085 -0.0055 298.021754823
0.0085 -0.0045 301.620173194
0.0085 -0.0035 305.590838291
0.0085 -0.0025 309.226692489
0.0085 -0.0015 311.211684692
0.0085 -0.0005 311.882696129
0.0085 0.0005 312.625389096
0.0085 0.0015 313.157594129
0.0085 0.0025 313.627607359
0.0085 0.0035 314.371014108
0.0085 0.0045 314.87377953
0.0085 0.0055 315.436862819
0.0085 0.0065 316.176008372
0.0085 0.0075 316.816497301
0.0085 0.0085 317.472333814
0.0085 0.0095 318.177826703
0.0085 0.0105 318.986976907
0.0085 0.0115 319.612307755
0.0085 0.0125 320.144794438
0.0085 0.0135 320.948761216
0.0085 0.0145 321.192092239
0.0085 0.0155 321.209916048
0.0085 0.0165 321.676500271
0.0085 0.0175 321.522391679
0.0085 0.0185 320.991127668
0.0085 0.0195 320.529122106
0.0085 0.0205 320.106232824
0.0085 0.0215 319.616677578
0.0085 0.0225 319.077679763
0.0085 0.0235 319.125287482
0.0085 0.0245 319.007352738
0.0085 0.0255 319.477030418
0.0085 0.0265 320.232678795
0.0085 0.0275 321.894359505
0.0085 0.0285 325.611241609
0.0085 0.0295 329.251246489
0.0085 0.0305 331.826200064
0.0085 0.0315 334.198648504
0.0095 -0.0315 314.934989227
0.0095 -0.0305 313.703010762
0.0095 -0.0295 312.521769214
0.0095 -0.0285 311.994994867
0.0095 -0.0275 311.585775385
0.0095 -0.0265 311.614635799
0.0095 -0.0255 311.861073682
0.0095 -0.0245 311.631678779
0.0095 -0.0235 310.176105116
0.0095 -0.0225 307.802387059
0.0095 -0.0215 305.493729304
0.0095 -0.0205 303.570847096
0.0095 -0.0195 302.231088333
0.0095 -0.0185 300.866380137
0.0095 -0.0175 300.077830663
0.0095 -0.0165 299.533960859
0.0095 -0.0155 298.990091055
0.0095 -0.0145 298.324064753
0.0095 -0.0135 297.418518162
0.0095 -0.0125 296.385048864
0.0095 -0.0115 295.20929227
0.0095 -0.0105 294.033535675
0.0095 -0.0095 293.785124682
0.0095 -0.0085 293.866508726
0.0095 -0.0075 294.196711406
0.0095 -0.0065 296.357484248
0.0095 -0.0055 298.582300199
0.0095 -0.0045 301.826878496
0.0095 -0.0035 305.789726787
0.0095 -0.0025 309.752575077
0.0095 -0.0015 310.651508302
0.0095 -0.0005 311.320862971
0.0095 0.0005 311.892966842
0.0095 0.0015 312.345669496
0.0095 0.0025 312.79837215
0.0095 0.0035 313.241054192
0.0095 0.0045 313.738737607
0.0095 0.0055 314.236421021
0.0095 0.0065 314.809471361
0.0095 0.0075 315.451067636
0.0095 0.0085 316.09266391
0.0095 0.0095 316.844696389
0.0095 0.0105 317.648985799
0.0095 0.0115 318.453275209
0.0095 0.0125 319.239858086
0.0095 0.0135 320.037315595
0.0095 0.0145 320.834773104
0.0095 0.0155 321.33240841
0.0095 0.0165 321.773527132
0.0095 0.0175 322.280686037
0.0095 0.0185 321.857113771
0.0095 0.0195 321.35735826
0.0095 0.0205 321.021571611
0.0095 0.0215 320.471584644
0.0095 0.0225 319.921597676
0.0095 0.0235 319.57658903
0.0095 0.0245 319.458654286
0.0095 0.0255 319.933751245
0.0095 0.0265 320.657989976
0.0095 0.0275 321.812288706
0.0095 0.0285 325.104718647
0.0095 0.0295 328.744723526
0.0095 0.0305 331.303991541
0.0095 0.0315 333.728510972
0.0105 -0.0315 315.256744987
0.0105 -0.0305 314.040190379
0.0105 -0.0295 313.017701082
0.0105 -0.0285 312.65703746
0.0105 -0.0275 312.247817978
0.0105 -0.0265 312.26709037
0.0105 -0.0255 312.403183563
0.0105 -0.0245 310.630029816
0.0105 -0.0235 308.223151169
0.0105 -0.0225 305.826037837
0.0105 -0.0215 303.521441219
0.0105 -0.0205 302.328368609
0.0105 -0.0195 301.102057654
0.0105 -0.0185 299.92852671
0.0105 -0.0175 299.469869919
0.0105 -0.0165 298.964007286
0.0105 -0.0155 298.572194854
0.0105 -0.0145 298.275732989
0.0105 -0.0135 297.370186399
0.0105 -0.0125 296.154366171
0.0105 -0.0115 294.945566896
0.0105 -0.0105 294.068280871
0.0105 -0.0095 293.777096053
0.0105 -0.0085 293.830891
0.0105 -0.0075 294.693212207
0.0105 -0.0065 296.201142455
0.0105 -0.0055 298.629263619
0.0105 -0.0045 302.413680508
0.0105 -0.0035 306.333779332
0.0105 -0.0025 308.980868454
0.0105 -0.0015 310.176457005
0.0105 -0.0005 310.845811674
0.0105 0.0005 311.142767291
0.0105 0.0015 311.48059307
0.0105 0.0025 311.903185185
0.0105 0.0035 312.028915136
0.0105 0.0045 312.460016256
0.0105 0.0055 312.870249563
0.0105 0.0065 313.049822519
0.0105 0.0075 313.691418794
0.0105 0.0085 314.195030227
0.0105 0.0095 314.568283035
0.0105 0.0105 315.372572445
0.0105 0.0115 316.075326045
0.0105 0.0125 316.723287153
0.0105 0.0135 317.520744662
0.0105 0.0145 318.496033355
0.0105 0.0155 319.411189592
0.0105 0.0165 319.852308314
0.0105 0.0175 320.879223496
0.0105 0.0185 321.644496222
0.0105 0.0195 321.144740712
0.0105 0.0205 321.252114051
0.0105 0.0215 321.222639066
0.0105 0.0225 320.696539336
0.0105 0.0235 320.366054925
0.0105 0.0245 320.03511907
0.0105 0.0255 320.239335143
0.0105 0.0265 320.839360011
0.0105 0.0275 322.067255967
0.0105 0.0285 325.274436386
0.0105 0.0295 328.437211781
0.0105 0.0305 330.874672938
0.0105 0.0315 333.322394709
0.0115 -0.0315 315.612445288
0.0115 -0.0305 314.513621438
0.0115 -0.0295 313.516963549
0.0115 -0.0285 313.210038195
0.0115 -0.0275 312.903112842
0.0115 -0.0265 311.999231265
0.0115 -0.0255 310.583473744
0.0115 -0.0245 308.764347766
0.0115 -0.0235 306.318105825
0.0115 -0.0225 303.871863884
0.0115 -0.0215 302.278962733
0.0115 -0.0205 301.10912877
0.0115 -0.0195 299.958111031
0.0115 -0.0185 299.331157516
0.0115 -0.0175 298.871888274
0.0115 -0.0165 298.488136069
0.0115 -0.0155 298.201585866
0.0115 -0.0145 297.903766246
0.0115 -0.0135 297.170494535
0.0115 -0.0125 295.929209789
0.0115 -0.0115 294.687925043
0.0115 -0.0105 294.255221603
0.0115 -0.0095 293.964036784
0.0115 -0.0085 294.057993352
0.0115 -0.0075 295.189713008
0.0115 -0.0065 296.321432663
0.0115 -0.0055 299.280331405
0.0115 -0.0045 303.064748295
0.0115 -0.0035 306.828063774
0.0115 -0.0025 308.125863
0.0115 -0.0015 309.423662226
0.0115 -0.0005 310.209394193
0.0115 0.0005 310.422391157
0.0115 0.0015 310.635388121
0.0115 0.0025 310.858766626
0.0115 0.0035 310.984496577
0.0115 0.0045 311.181294906
0.0115 0.0055 311.40308074
0.0115 0.0065 311.575649264
0.0115 0.0075 311.929256226
0.0115 0.0085 312.232807417
0.0115 0.0095 312.536358609
0.0115 0.0105 313.070719285
0.0115 0.0115 313.678120372
0.0115 0.0125 314.285521458
0.0115 0.0135 315.065963895
0.0115 0.0145 316.163671257
0.0115 0.0155 317.261378619
0.0115 0.0165 318.153114246
0.0115 0.0175 319.477760954
0.0115 0.0185 320.802407663
0.0115 0.0195 321.201692882
0.0115 0.0205 321.432247817
0.0115 0.0215 321.662802752
0.0115 0.0225 321.507497043
0.0115 0.0235 321.127035742
0.0115 0.0245 320.74657444
0.0115 0.0255 320.836573714
0.0115 0.0265 321.121779215
0.0115 0.0275 322.322223228
0.0115 0.0285 325.374934085
0.0115 0.0295 328.409144185
0.0115 0.0305 330.743026977
0.0115 0.0315 332.973980324
0.0125 -0.0315 315.999388641
0.0125 -0.0305 315.018130011
0.0125 -0.0295 314.016226017
0.0125 -0.0285 313.571943666
0.0125 -0.0275 312.649285057
0.0125 -0.0265 310.684742062
0.0125 -0.0255 308.684074593
0.0125 -0.0245 306.898665716
0.0125 -0.0235 304.548614582
0.0125 -0.0225 302.466267996
0.0125 -0.0215 301.372228083
0.0125 -0.0205 300.278804424
0.0125 -0.0195 299.162205718
0.0125 -0.0185 298.826426435
0.0125 -0.0175 298.390136622
0.0125 -0.0165 298.347729644
0.0125 -0.0155 298.170648713
0.0125 -0.0145 297.816464506
0.0125 -0.0135 296.893647944
0.0125 -0.0125 295.683915348
0.0125 -0.0115 294.690332518
0.0125 -0.0105 294.197409933
0.0125 -0.0095 293.90785315
0.0125 -0.0085 294.226825768
0.0125 -0.0075 295.189829556
0.0125 -0.0065 296.584366046
0.0125 -0.0055 299.451232681
0.0125 -0.0045 303.243319842
0.0125 -0.0035 306.509331096
0.0125 -0.0025 308.464287476
0.0125 -0.0015 309.734041465
0.0125 -0.0005 309.908187418
0.0125 0.0005 310.10260873
0.0125 0.0015 310.258808463
0.0125 0.0025 310.270777551
0.0125 0.0035 310.38697178
0.0125 0.0045 310.442558592
0.0125 0.0055 310.52592412
0.0125 0.0065 310.689344849
0.0125 0.0075 310.758717589
0.0125 0.0085 310.997697603
0.0125 0.0095 311.303338933
0.0125 0.0105 311.442475155
0.0125 0.0115 311.996272366
0.0125 0.0125 312.60457138
0.0125 0.0135 312.892443478
0.0125 0.0145 313.947952601
0.0125 0.0155 315.044262967
0.0125 0.0165 315.851597687
0.0125 0.0175 317.136266894
0.0125 0.0185 318.420936101
0.0125 0.0195 320.310981906
0.0125 0.0205 320.530273137
0.0125 0.0215 320.847174072
0.0125 0.0225 321.600677454
0.0125 0.0235 321.834904429
0.0125 0.0245 321.45802981
0.0125 0.0255 321.561032409
0.0125 0.0265 321.776892977
0.0125 0.0275 322.653674316
0.0125 0.0285 325.360476584
0.0125 0.0295 328.381076589
0.0125 0.0305 330.708581172
0.0125 0.0315 332.890375021
0.0135 -0.0315 316.296478161
0.0135 -0.0305 315.320793144
0.0135 -0.0295 314.306691364
0.0135 -0.0285 313.068580124
0.0135 -0.0275 312.145921516
0.0135 -0.0265 310.189204138
0.0135 -0.0255 307.89784618
0.0135 -0.0245 305.310515079
0.0135 -0.0235 303.313673973
0.0135 -0.0225 301.231327387
0.0135 -0.0215 300.230818247
0.0135 -0.0205 299.370871053
0.0135 -0.0195 298.592849225
0.0135 -0.0185 298.34403787
0.0135 -0.0175 298.21940248
0.0135 -0.0165 298.20732322
0.0135 -0.0155 298.13971156
0.0135 -0.0145 297.383497765
0.0135 -0.0135 296.460681204
0.0135 -0.0125 295.437659421
0.0135 -0.0115 294.793410183
0.0135 -0.0105 294.212596643
0.0135 -0.0095 294.05452691
0.0135 -0.0085 294.562667563
0.0135 -0.0075 295.146897149
0.0135 -0.0065 297.354113699
0.0135 -0.0055 300.062737162
0.0135 -0.0045 303.290527313
0.0135 -0.0035 306.119244353
0.0135 -0.0025 308.947961394
0.0135 -0.0015 309.751925778
0.0135 -0.0005 309.792721052
0.0135 0.0005 309.890620646
0.0135 0.0015 309.916648361
0.0135 0.0025 309.882242201
0.0135 0.0035 309.952809344
0.0135 0.0045 309.926391623
0.0135 0.0055 309.899520201
0.0135 0.0065 310.027082216
0.0135 0.0075 310.034801005
0.0135 0.0085 310.091686097
0.0135 0.0095 310.316708135
0.0135 0.0105 310.398685755
0.0135 0.0115 310.631491716
0.0135 0.0125 311.058049858
0.0135 0.0135 311.283213349
0.0135 0.0145 311.786398513
0.0135 0.0155 312.693418046
0.0135 0.0165 313.429030483
0.0135 0.0175 314.41835876
0.0135 0.0185 315.991717906
0.0135 0.0195 318.000660396
0.0135 0.0205 319.308176443
0.0135 0.0215 320.322373334
0.0135 0.0225 321.175811558
0.0135 0.0235 321.410038533
0.0135 0.0245 321.737209656
0.0135 0.0255 322.132140822
0.0135 0.0265 322.298237375
0.0135 0.0275 323.188494478
0.0135 0.0285 325.895296746
0.0135 0.0295 328.47684035
0.0135 0.0305 330.591469712
0.0135 0.0315 332.766811561
0.0145 -0.0315 316.604577731
0.0145 -0.0305 315.654640043
0.0145 -0.0295 314.642798973
0.0145 -0.0285 313.195743345
0.0145 -0.0275 311.748687717
0.0145 -0.0265 309.132782779
0.0145 -0.0255 306.038271482
0.0145 -0.0245 303.456624798
0.0145 -0.0235 301.817163
0.0145 -0.0225 299.996386778
0.0145 -0.0215 299.175798211
0.0145 -0.0205 298.67394949
0.0145 -0.0195 298.363108532
0.0145 -0.0185 298.214485913
0.0145 -0.0175 298.090230826
0.0145 -0.0165 298.077389719
0.0145 -0.0155 297.963335768
0.0145 -0.0145 297.107210388
0.0145 -0.0135 296.192820249
0.0145 -0.0125 295.356404635
0.0145 -0.0115 294.732529167
0.0145 -0.0105 294.152335579
0.0145 -0.0095 294.183068734
0.0145 -0.0085 294.693551673
0.0145 -0.0075 295.436431626
0.0145 -0.0065 297.65884157
0.0145 -0.0055 300.37479706
0.0145 -0.0045 303.552682026
0.0145 -0.0035 306.396762326
0.0145 -0.0025 309.20300605
0.0145 -0.0015 309.649447126
0.0145 -0.0005 309.689631288
0.0145 0.0005 309.700733495
0.0145 0.0015 309.65742587
0.0145 0.0025 309.618841388
0.0145 0.0035 309.574007686
0.0145 0.0045 309.540356266
0.0145 0.0055 309.506704846
0.0145 0.0065 309.479677734
0.0145 0.0075 309.485707001
0.0145 0.0085 309.491736267
0.0145 0.0095 309.515620877
0.0145 0.0105 309.598757352
0.0145 0.0115 309.669208403
0.0145 0.0125 309.822091376
0.0145 0.0135 310.057957089
0.0145 0.0145 310.250945957
0.0145 0.0155 310.690374421
0.0145 0.0165 311.262792907
0.0145 0.0175 311.835211394
0.0145 0.0185 313.39921695
0.0145 0.0195 315.168308534
0.0145 0.0205 317.043634076
0.0145 0.0215 319.1878285
0.0145 0.0225 320.750945663
0.0145 0.0235 321.296051469
0.0145 0.0245 321.906847369
0.0145 0.0255 322.344288659
0.0145 0.0265 322.711164103
0.0145 0.0275 323.690423914
0.0145 0.0285 326.145642646
0.0145 0.0295 328.600861377
0.0145 0.0305 330.67729571
0.0145 0.0315 332.70556487
0.0155 -0.0315 316.819700638
0.0155 -0.0305 315.982939197
0.0155 -0.0295 314.978906582
0.0155 -0.0285 312.958258897
0.0155 -0.0275 309.88184211
0.0155 -0.0265 307.026556156
0.0155 -0.0255 304.169589376
0.0155 -0.0245 301.602734516
0.0155 -0.0235 300.176578819
0.0155 -0.0225 299.250133515
0.0155 -0.0215 298.900395101
0.0155 -0.0205 298.408859135
0.0155 -0.0195 298.12302269
0.0155 -0.0185 298.006757233
0.0155 -0.0175 297.972755415
0.0155 -0.0165 297.969842647
0.0155 -0.0155 297.688215465
0.0155 -0.0145 296.924737571
0.0155 -0.0135 296.033240988
0.0155 -0.0125 295.290209919
0.0155 -0.0115 294.574978488
0.0155 -0.0105 294.21882857
0.0155 -0.0095 294.377666706
0.0155 -0.0085 294.696196623
0.0155 -0.0075 296.04842724
0.0155 -0.0065 297.747135974
0.0155 -0.0055 300.467993
0.0155 -0.0045 303.951431651
0.0155 -0.0035 307.20204324
0.0155 -0.0025 308.87192673
0.0155 -0.0015 309.437874879
0.0155 -0.0005 309.599279966
0.0155 0.0005 309.556091975
0.0155 0.0015 309.501199576
0.0155 0.0025 309.460628637
0.0155 0.0035 309.407850286
0.0155 0.0045 309.36478474
0.0155 0.0055 309.323548013
0.0155 0.0065 309.270152889
0.0155 0.0075 309.263362576
0.0155 0.0085 309.233790075
0.0155 0.0095 309.178820521
0.0155 0.0105 309.257133033
0.0155 0.0115 309.254763566
0.0155 0.0125 309.254735146
0.0155 0.0135 309.49060086
0.0155 0.0145 309.524544797
0.0155 0.0155 309.725497979
0.0155 0.0165 310.291361689
0.0155 0.0175 310.752437813
0.0155 0.0185 311.041543761
0.0155 0.0195 311.896117382
0.0155 0.0205 313.804033291
0.0155 0.0215 315.919456518
0.0155 0.0225 318.029194309
0.0155 0.0235 320.690389382
0.0155 0.0245 322.076485082
0.0155 0.0255 322.519250594
0.0155 0.0265 323.200633822
0.0155 0.0275 324.335485288
0.0155 0.0285 326.3677517
0.0155 0.0295 328.724882403
0.0155 0.0305 330.791725778
0.0155 0.0315 332.631562318
0.0165 -0.0315 316.96968522
0.0165 -0.0305 316.132923779
0.0165 -0.0295 314.032868297
0.0165 -0.0285 310.602740001
0.0165 -0.0275 307.526323214
0.0165 -0.0265 304.669473196
0.0165 -0.0255 301.989742928
0.0165 -0.0245 300.523030613
0.0165 -0.0235 299.668890548
0.0165 -0.0225 298.742445244
0.0165 -0.0215 298.391996622
0.0165 -0.0205 298.051677495
0.0165 -0.0195 297.963430903
0.0165 -0.0185 297.941027935
0.0165 -0.0175 297.914838747
0.0165 -0.0165 297.881328431
0.0165 -0.0155 297.433928905
0.0165 -0.0145 296.679175166
0.0165 -0.0135 295.907094052