% Model:              SIMBench260525.mph
% Version:            COMSOL 6.2.0.339
% Date:               May 27 2026, 17:20
% Dimension:          2
% Nodes:              4096
% Expressions:        1
% Description:        温度
% Length unit:        m
% x                       y                        T (K)
% mirrored_by_python_y_to_minus_y, coord_match_decimals=12
0.0005 -0.0315 293.084978976
0.0005 -0.0305 293.117274247
0.0005 -0.0295 293.149569517
0.0005 -0.0285 293.148441374
0.0005 -0.0275 293.164480098
0.0005 -0.0265 293.180518822
0.0005 -0.0255 293.161018047
0.0005 -0.0245 293.149455953
0.0005 -0.0235 293.243356787
0.0005 -0.0225 293.451147373
0.0005 -0.0215 293.931545902
0.0005 -0.0205 293.895090365
0.0005 -0.0195 293.858634828
0.0005 -0.0185 294.694318621
0.0005 -0.0175 295.056403188
0.0005 -0.0165 295.843115796
0.0005 -0.0155 299.888663016
0.0005 -0.0145 303.584308689
0.0005 -0.0135 306.674173454
0.0005 -0.0125 308.955610513
0.0005 -0.0115 311.622157511
0.0005 -0.0105 313.282527755
0.0005 -0.0095 314.183190113
0.0005 -0.0085 315.198209243
0.0005 -0.0075 315.609793239
0.0005 -0.0065 316.013646719
0.0005 -0.0055 316.422439563
0.0005 -0.0045 316.470558398
0.0005 -0.0035 316.59347771
0.0005 -0.0025 316.716397022
0.0005 -0.0015 316.657116029
0.0005 -0.0005 316.68121786
0.0005 0.0005 316.697650262
0.0005 0.0015 316.654799024
0.0005 0.0025 316.673471753
0.0005 0.0035 316.681100783
0.0005 0.0045 316.691128812
0.0005 0.0055 316.72660337
0.0005 0.0065 316.77293601
0.0005 0.0075 316.864677343
0.0005 0.0085 316.964498633
0.0005 0.0095 317.122963312
0.0005 0.0105 317.263740648
0.0005 0.0115 317.399271724
0.0005 0.0125 317.658469488
0.0005 0.0135 317.769826066
0.0005 0.0145 317.881182643
0.0005 0.0155 318.181151783
0.0005 0.0165 318.350357421
0.0005 0.0175 318.520790118
0.0005 0.0185 318.777276539
0.0005 0.0195 319.023769051
0.0005 0.0205 319.265003067
0.0005 0.0215 319.566357522
0.0005 0.0225 319.93695971
0.0005 0.0235 320.264756768
0.0005 0.0245 320.859825792
0.0005 0.0255 321.60728321
0.0005 0.0265 322.257530972
0.0005 0.0275 323.521250863
0.0005 0.0285 324.902165628
0.0005 0.0295 326.521250802
0.0005 0.0305 327.853349274
0.0005 0.0315 329.186980614
0.0015 -0.0315 293.220297151
0.0015 -0.0305 293.224914446
0.0015 -0.0295 293.237467479
0.0015 -0.0285 293.212279028
0.0015 -0.0275 293.221530015
0.0015 -0.0265 293.205597771
0.0015 -0.0255 293.16510644
0.0015 -0.0245 293.163027691
0.0015 -0.0235 293.267222383
0.0015 -0.0225 293.714869075
0.0015 -0.0215 294.295315227
0.0015 -0.0205 294.708417968
0.0015 -0.0195 295.146582414
0.0015 -0.0185 296.41981489
0.0015 -0.0175 297.089614578
0.0015 -0.0165 300.219454725
0.0015 -0.0155 304.636333237
0.0015 -0.0145 308.39473335
0.0015 -0.0135 310.156935824
0.0015 -0.0125 311.730090392
0.0015 -0.0115 314.316661064
0.0015 -0.0105 314.656852862
0.0015 -0.0095 315.151215535
0.0015 -0.0085 315.969772056
0.0015 -0.0075 315.962690751
0.0015 -0.0065 316.115896253
0.0015 -0.0055 316.339245673
0.0015 -0.0045 316.21856112
0.0015 -0.0035 316.230160806
0.0015 -0.0025 316.224710209
0.0015 -0.0015 316.095080482
0.0015 -0.0005 316.073121506
0.0015 0.0005 316.0175788
0.0015 0.0015 315.922115215
0.0015 0.0025 315.924416927
0.0015 0.0035 315.90210084
0.0015 0.0045 315.871746449
0.0015 0.0055 315.907221007
0.0015 0.0065 315.970753608
0.0015 0.0075 316.040691217
0.0015 0.0085 316.155586599
0.0015 0.0095 316.364560226
0.0015 0.0105 316.550618657
0.0015 0.0115 316.746815991
0.0015 0.0125 317.088471092
0.0015 0.0135 317.323122581
0.0015 0.0145 317.564244861
0.0015 0.0155 317.960532329
0.0015 0.0165 318.216940626
0.0015 0.0175 318.444198726
0.0015 0.0185 318.707318404
0.0015 0.0195 318.957539221
0.0015 0.0205 319.179997266
0.0015 0.0215 319.39510566
0.0015 0.0225 319.754377862
0.0015 0.0235 320.003613774
0.0015 0.0245 320.267022412
0.0015 0.0255 320.998486637
0.0015 0.0265 321.54451791
0.0015 0.0275 322.266259403
0.0015 0.0285 323.808707375
0.0015 0.0295 325.604451089
0.0015 0.0305 327.112697856
0.0015 0.0315 328.547981004
0.0025 -0.0315 293.356836247
0.0025 -0.0305 293.357242074
0.0025 -0.0295 293.329735283
0.0025 -0.0285 293.287596496
0.0025 -0.0275 293.273271187
0.0025 -0.0265 293.21734561
0.0025 -0.0255 293.169194832
0.0025 -0.0245 293.186407499
0.0025 -0.0235 293.451548529
0.0025 -0.0225 293.978590777
0.0025 -0.0215 294.575935744
0.0025 -0.0205 295.349011328
0.0025 -0.0195 297.082064431
0.0025 -0.0185 298.373322154
0.0025 -0.0175 300.122662026
0.0025 -0.0165 304.546663708
0.0025 -0.0155 308.97066539
0.0025 -0.0145 311.819957143
0.0025 -0.0135 313.309693771
0.0025 -0.0125 314.799430399
0.0025 -0.0115 315.484579057
0.0025 -0.0105 315.824592401
0.0025 -0.0095 316.164605746
0.0025 -0.0085 316.199240211
0.0025 -0.0075 316.191727259
0.0025 -0.0065 316.184214307
0.0025 -0.0055 316.061917795
0.0025 -0.0045 315.941143969
0.0025 -0.0035 315.8226539
0.0025 -0.0025 315.694777098
0.0025 -0.0015 315.565125216
0.0025 -0.0005 315.45007439
0.0025 0.0005 315.354684635
0.0025 0.0015 315.25929488
0.0025 0.0025 315.188848828
0.0025 0.0035 315.158063476
0.0025 0.0045 315.127278125
0.0025 0.0055 315.13735967
0.0025 0.0065 315.201868598
0.0025 0.0075 315.266377527
0.0025 0.0085 315.407606831
0.0025 0.0095 315.616827777
0.0025 0.0105 315.826048723
0.0025 0.0115 316.128552335
0.0025 0.0125 316.469548828
0.0025 0.0135 316.821914038
0.0025 0.0145 317.239754669
0.0025 0.0155 317.634654187
0.0025 0.0165 318.128855161
0.0025 0.0175 318.395926276
0.0025 0.0185 318.658213372
0.0025 0.0195 318.980923079
0.0025 0.0205 319.193140581
0.0025 0.0215 319.405358083
0.0025 0.0225 319.598686857
0.0025 0.0235 319.847040599
0.0025 0.0245 320.09539434
0.0025 0.0255 320.427853083
0.0025 0.0265 321.009150268
0.0025 0.0275 321.597541461
0.0025 0.0285 322.908524186
0.0025 0.0295 324.717258334
0.0025 0.0305 326.380618678
0.0025 0.0315 327.908981394
0.0035 -0.0315 293.484694989
0.0035 -0.0305 293.491986244
0.0035 -0.0295 293.467575549
0.0035 -0.0285 293.40412231
0.0035 -0.0275 293.289510264
0.0035 -0.0265 293.229515782
0.0035 -0.0255 293.203238271
0.0035 -0.0245 293.259072841
0.0035 -0.0235 293.492495688
0.0035 -0.0225 294.4074633
0.0035 -0.0215 295.616736256
0.0035 -0.0205 297.39675191
0.0035 -0.0195 301.073128819
0.0035 -0.0185 302.364386542
0.0035 -0.0175 305.017312738
0.0035 -0.0165 308.651662587
0.0035 -0.0155 312.903991948
0.0035 -0.0145 313.265960092
0.0035 -0.0135 314.417008314
0.0035 -0.0125 315.535937076
0.0035 -0.0115 315.433975928
0.0035 -0.0105 315.713861453
0.0035 -0.0095 315.847243997
0.0035 -0.0085 315.668045206
0.0035 -0.0075 315.660532253
0.0035 -0.0065 315.567633921
0.0035 -0.0055 315.413193985
0.0035 -0.0045 315.292420159
0.0035 -0.0035 315.186392472
0.0035 -0.0025 315.076380248
0.0035 -0.0015 314.946728366
0.0035 -0.0005 314.874412908
0.0035 0.0005 314.79509182
0.0035 0.0015 314.70107201
0.0035 0.0025 314.655664292
0.0035 0.0035 314.619679748
0.0035 0.0045 314.591354597
0.0035 0.0055 314.573939966
0.0035 0.0065 314.621466046
0.0035 0.0075 314.679949293
0.0035 0.0085 314.726746624
0.0035 0.0095 314.925605463
0.0035 0.0105 315.139126364
0.0035 0.0115 315.366113365
0.0035 0.0125 315.707109858
0.0035 0.0135 316.179447877
0.0035 0.0145 316.689092849
0.0035 0.0155 317.083992367
0.0035 0.0165 317.845809223
0.0035 0.0175 318.474530342
0.0035 0.0185 318.736817437
0.0035 0.0195 319.313297102
0.0035 0.0205 319.696055677
0.0035 0.0215 319.889902604
0.0035 0.0225 319.950095587
0.0035 0.0235 320.140474164
0.0035 0.0245 320.334238745
0.0035 0.0255 320.38651387
0.0035 0.0265 320.857920609
0.0035 0.0275 321.554024791
0.0035 0.0285 322.324268488
0.0035 0.0295 323.891656449
0.0035 0.0305 325.494987367
0.0035 0.0315 327.18789598
0.0045 -0.0315 293.58591137
0.0045 -0.0305 293.611250227
0.0045 -0.0295 293.557810118
0.0045 -0.0285 293.427276435
0.0045 -0.0275 293.311035697
0.0045 -0.0265 293.245968913
0.0045 -0.0255 293.245312553
0.0045 -0.0245 293.304771664
0.0045 -0.0235 293.783135427
0.0045 -0.0225 295.248247083
0.0045 -0.0215 296.672121131
0.0045 -0.0205 299.967968763
0.0045 -0.0195 303.936040875
0.0045 -0.0185 306.886082449
0.0045 -0.0175 309.932069026
0.0045 -0.0165 312.978055604
0.0045 -0.0155 314.699553327
0.0045 -0.0145 315.061521471
0.0045 -0.0135 315.524322856
0.0045 -0.0125 315.692455864
0.0045 -0.0115 315.590494717
0.0045 -0.0105 315.603130504
0.0045 -0.0095 315.422121952
0.0045 -0.0085 315.23915803
0.0045 -0.0075 315.105429389
0.0045 -0.0065 314.943662799
0.0045 -0.0055 314.781896209
0.0045 -0.0045 314.65020203
0.0045 -0.0035 314.550131043
0.0045 -0.0025 314.450060057
0.0045 -0.0015 314.359454028
0.0045 -0.0005 314.295687771
0.0045 0.0005 314.231921513
0.0045 0.0015 314.171568685
0.0045 0.0025 314.126160967
0.0045 0.0035 314.08129602
0.0045 0.0045 314.061015368
0.0045 0.0055 314.043600737
0.0045 0.0065 314.041063495
0.0045 0.0075 314.088898297
0.0045 0.0085 314.135695628
0.0045 0.0095 314.235220872
0.0045 0.0105 314.453121739
0.0045 0.0115 314.671022606
0.0045 0.0125 314.995557585
0.0045 0.0135 315.536981715
0.0045 0.0145 316.078405846
0.0045 0.0155 316.72032934
0.0045 0.0165 317.562763286
0.0045 0.0175 318.405197232
0.0045 0.0185 319.003981234
0.0045 0.0195 319.588231055
0.0045 0.0205 320.172480875
0.0045 0.0215 320.298197726
0.0045 0.0225 320.35839071
0.0045 0.0235 320.433907729
0.0045 0.0245 320.509782489
0.0045 0.0255 320.562057614
0.0045 0.0265 320.739887432
0.0045 0.0275 321.508839572
0.0045 0.0285 322.277791712
0.0045 0.0295 323.112394216
0.0045 0.0305 324.915331787
0.0045 0.0315 326.736500418
0.0055 -0.0315 293.6849075
0.0055 -0.0305 293.644291842
0.0055 -0.0295 293.571005325
0.0055 -0.0285 293.447754668
0.0055 -0.0275 293.33256113
0.0055 -0.0265 293.265527536
0.0055 -0.0255 293.220381434
0.0055 -0.0245 293.279361959
0.0055 -0.0235 293.867977437
0.0055 -0.0225 295.017634617
0.0055 -0.0215 297.524178099
0.0055 -0.0205 301.304258688
0.0055 -0.0195 305.397394922
0.0055 -0.0185 309.569827038
0.0055 -0.0175 312.550490623
0.0055 -0.0165 314.965321532
0.0055 -0.0155 315.100278984
0.0055 -0.0145 315.472925646
0.0055 -0.0135 315.627922605
0.0055 -0.0125 315.499154811
0.0055 -0.0115 315.397756627
0.0055 -0.0105 315.285557486
0.0055 -0.0095 315.124537616
0.0055 -0.0085 314.941629345
0.0055 -0.0075 314.840174903
0.0055 -0.0065 314.694810939
0.0055 -0.0055 314.533210323
0.0055 -0.0045 314.476468684
0.0055 -0.0035 314.378121706
0.0055 -0.0025 314.282769939
0.0055 -0.0015 314.240729205
0.0055 -0.0005 314.177393635
0.0055 0.0005 314.11850739
0.0055 0.0015 314.074302091
0.0055 0.0025 314.029915026
0.0055 0.0035 313.977871132
0.0055 0.0045 313.934384173
0.0055 0.0055 313.918731048
0.0055 0.0065 313.867506932
0.0055 0.0075 313.859914045
0.0055 0.0085 313.909073839
0.0055 0.0095 313.882188568
0.0055 0.0105 314.016806032
0.0055 0.0115 314.236816496
0.0055 0.0125 314.320435718
0.0055 0.0135 314.774919933
0.0055 0.0145 315.314156416
0.0055 0.0155 315.755593532
0.0055 0.0165 316.576773372
0.0055 0.0175 317.474315722
0.0055 0.0185 318.564471068
0.0055 0.0195 319.154851775
0.0055 0.0205 319.940614204
0.0055 0.0215 320.738210016
0.0055 0.0225 320.798188588
0.0055 0.0235 320.828138175
0.0055 0.0245 320.860448384
0.0055 0.0255 320.924561555
0.0055 0.0265 320.972954654
0.0055 0.0275 321.40815988
0.0055 0.0285 322.180254606
0.0055 0.0295 323.189650455
0.0055 0.0305 324.719195968
0.0055 0.0315 326.285104856
0.0065 -0.0315 293.688193192
0.0065 -0.0305 293.64884334
0.0065 -0.0295 293.581573375
0.0065 -0.0285 293.454961388
0.0065 -0.0275 293.328950746
0.0065 -0.0265 293.277791824
0.0065 -0.0255 293.216300129
0.0065 -0.0245 293.505530239
0.0065 -0.0235 294.145997215
0.0065 -0.0225 295.289813804
0.0065 -0.0215 298.863419632
0.0065 -0.0205 302.467844961
0.0065 -0.0195 306.613069286
0.0065 -0.0185 310.790534439
0.0065 -0.0175 314.492374037
0.0065 -0.0165 315.199798967
0.0065 -0.0155 315.255829827
0.0065 -0.0145 315.520392292
0.0065 -0.0135 315.370426123
0.0065 -0.0125 315.216119396
0.0065 -0.0115 315.104831162
0.0065 -0.0105 314.985173198
0.0065 -0.0095 314.862453375
0.0065 -0.0085 314.717903011
0.0065 -0.0075 314.642806919
0.0065 -0.0065 314.549742423
0.0065 -0.0055 314.447435676
0.0065 -0.0045 314.400290796
0.0065 -0.0035 314.333849224
0.0065 -0.0025 314.275224121
0.0065 -0.0015 314.236277893
0.0065 -0.0005 314.184618887
0.0065 0.0005 314.137299084
0.0065 0.0015 314.093164302
0.0065 0.0025 314.048860106
0.0065 0.0035 313.9849225
0.0065 0.0045 313.920772554
0.0065 0.0055 313.88672593
0.0065 0.0065 313.805469837
0.0065 0.0075 313.724213743
0.0065 0.0085 313.734264603
0.0065 0.0095 313.674090962
0.0065 0.0105 313.633331568
0.0065 0.0115 313.781997013
0.0065 0.0125 313.841434251
0.0065 0.0135 313.991322618
0.0065 0.0145 314.471989603
0.0065 0.0155 314.913426719
0.0065 0.0165 315.481356941
0.0065 0.0175 316.568638932
0.0065 0.0185 317.725953337
0.0065 0.0195 318.604647944
0.0065 0.0205 319.723738361
0.0065 0.0215 320.852349475
0.0065 0.0225 321.237454339
0.0065 0.0235 321.236459493
0.0065 0.0245 321.235464647
0.0065 0.0255 321.292683927
0.0065 0.0265 321.333170883
0.0065 0.0275 321.373657839
0.0065 0.0285 322.291089413
0.0065 0.0295 323.300485262
0.0065 0.0305 324.784633518
0.0065 0.0315 326.339823992
0.0075 -0.0315 293.689325622
0.0075 -0.0305 293.650840716
0.0075 -0.0295 293.579711068
0.0075 -0.0285 293.446513422
0.0075 -0.0275 293.313103652
0.0075 -0.0265 293.261944731
0.0075 -0.0255 293.23538209
0.0075 -0.0245 293.700313438
0.0075 -0.0235 294.312244912
0.0075 -0.0225 295.826224543
0.0075 -0.0215 299.61449016
0.0075 -0.0205 303.679942869
0.0075 -0.0195 308.068969856
0.0075 -0.0185 312.276826605
0.0075 -0.0175 315.199366406
0.0075 -0.0165 315.293426929
0.0075 -0.0155 315.354784903
0.0075 -0.0145 315.328903721
0.0075 -0.0135 315.174258625
0.0075 -0.0125 315.019613529
0.0075 -0.0115 314.931496168
0.0075 -0.0105 314.812096627
0.0075 -0.0095 314.692697086
0.0075 -0.0085 314.663226227
0.0075 -0.0075 314.588457718
0.0075 -0.0065 314.529842901
0.0075 -0.0055 314.525250535
0.0075 -0.0045 314.478264183
0.0075 -0.0035 314.459312672
0.0075 -0.0025 314.442602604
0.0075 -0.0015 314.40388264
0.0075 -0.0005 314.380697298
0.0075 0.0005 314.340741571
0.0075 0.0015 314.297333313
0.0075 0.0025 314.231364259
0.0075 0.0035 314.168693114
0.0075 0.0045 314.106021968
0.0075 0.0055 313.985590909
0.0075 0.0065 313.906471163
0.0075 0.0075 313.827351417
0.0075 0.0085 313.681217547
0.0075 0.0095 313.623861725
0.0075 0.0105 313.561201587
0.0075 0.0115 313.479647586
0.0075 0.0125 313.543402835
0.0075 0.0135 313.577225387
0.0075 0.0145 313.778776757
0.0075 0.0155 314.224191095
0.0075 0.0165 314.578610781
0.0075 0.0175 315.415150564
0.0075 0.0185 316.568167113
0.0075 0.0195 317.679836817
0.0075 0.0205 318.827131382
0.0075 0.0215 319.982305941
0.0075 0.0225 321.311192155
0.0075 0.0235 321.378666074
0.0075 0.0245 321.446139993
0.0075 0.0255 321.61350701
0.0075 0.0265 321.625216641
0.0075 0.0275 321.636926271
0.0075 0.0285 322.540980954
0.0075 0.0295 323.460869498
0.0075 0.0305 324.877409435
0.0075 0.0315 326.444147767
0.0085 -0.0315 293.686324242
0.0085 -0.0305 293.623045985
0.0085 -0.0295 293.546236099
0.0085 -0.0285 293.424694483
0.0085 -0.0275 293.30158931
0.0085 -0.0265 293.293194092
0.0085 -0.0255 293.300522141
0.0085 -0.0245 293.731916541
0.0085 -0.0235 294.446516998
0.0085 -0.0225 296.388986992
0.0085 -0.0215 300.442196999
0.0085 -0.0205 304.776445334
0.0085 -0.0195 309.855263682
0.0085 -0.0185 314.111959687
0.0085 -0.0175 315.028305724
0.0085 -0.0165 315.22094597
0.0085 -0.0155 315.26106378
0.0085 -0.0145 315.178304238
0.0085 -0.0135 315.060517809
0.0085 -0.0125 314.947948016
0.0085 -0.0115 314.906091749
0.0085 -0.0105 314.811633965
0.0085 -0.0095 314.76848761
0.0085 -0.0085 314.785781138
0.0085 -0.0075 314.725829377
0.0085 -0.0065 314.748250517
0.0085 -0.0055 314.808083013
0.0085 -0.0045 314.761254834
0.0085 -0.0035 314.802705181
0.0085 -0.0025 314.841678318
0.0085 -0.0015 314.804374026
0.0085 -0.0005 314.801219952
0.0085 0.0005 314.785771991
0.0085 0.0015 314.734571126
0.0085 0.0025 314.65081233
0.0085 0.0035 314.576503536
0.0085 0.0045 314.479456234
0.0085 0.0055 314.316754613
0.0085 0.0065 314.202452709
0.0085 0.0075 314.059443519
0.0085 0.0085 313.850000919
0.0085 0.0095 313.746435363
0.0085 0.0105 313.602293553
0.0085 0.0115 313.407701344
0.0085 0.0125 313.419709161
0.0085 0.0135 313.362197302
0.0085 0.0145 313.26977379
0.0085 0.0155 313.660161882
0.0085 0.0165 313.870753266
0.0085 0.0175 314.077685076
0.0085 0.0185 315.219608723
0.0085 0.0195 316.30097282
0.0085 0.0205 317.405581357
0.0085 0.0215 318.853384065
0.0085 0.0225 320.667354972
0.0085 0.0235 321.102941623
0.0085 0.0245 321.638617518
0.0085 0.0255 321.897816463
0.0085 0.0265 321.891171065
0.0085 0.0275 321.949028726
0.0085 0.0285 322.850153152
0.0085 0.0295 323.733463861
0.0085 0.0305 325.094671665
0.0085 0.0315 326.560718433
0.0095 -0.0315 293.659906481
0.0095 -0.0305 293.587821817
0.0095 -0.0295 293.51276113
0.0095 -0.0285 293.398400561
0.0095 -0.0275 293.301196798
0.0095 -0.0265 293.335268069
0.0095 -0.0255 293.365662191
0.0095 -0.0245 293.763519643
0.0095 -0.0235 294.74803626
0.0095 -0.0225 296.763072016
0.0095 -0.0215 301.218485204
0.0095 -0.0205 305.872947799
0.0095 -0.0195 311.08031814
0.0095 -0.0185 314.660439311
0.0095 -0.0175 314.883143982
0.0095 -0.0165 315.105848653
0.0095 -0.0155 315.112316061
0.0095 -0.0145 315.03068463
0.0095 -0.0135 314.949053199
0.0095 -0.0125 314.913545889
0.0095 -0.0115 314.872505775
0.0095 -0.0105 314.853086196
0.0095 -0.0095 314.871401445
0.0095 -0.0085 314.889716693
0.0095 -0.0075 314.940088343
0.0095 -0.0065 315.00029901
0.0095 -0.0055 315.060509678
0.0095 -0.0045 315.137905648
0.0095 -0.0035 315.191412571
0.0095 -0.0025 315.244919494
0.0095 -0.0015 315.279746011
0.0095 -0.0005 315.277365303
0.0095 0.0005 315.274984594
0.0095 0.0015 315.217299857
0.0095 0.0025 315.135724754
0.0095 0.0035 315.05414965
0.0095 0.0045 314.893523919
0.0095 0.0055 314.734705193
0.0095 0.0065 314.557234203
0.0095 0.0075 314.34585064
0.0095 0.0085 314.141307864
0.0095 0.0095 313.899288796
0.0095 0.0105 313.710205648
0.0095 0.0115 313.521122501
0.0095 0.0125 313.302820518
0.0095 0.0135 313.218911341
0.0095 0.0145 313.135002164
0.0095 0.0155 313.069469799
0.0095 0.0165 313.279723495
0.0095 0.0175 313.48997719
0.0095 0.0185 313.922128844
0.0095 0.0195 315.003639864
0.0095 0.0205 316.059461564
0.0095 0.0215 317.519481003
0.0095 0.0225 319.274925535
0.0095 0.0235 321.120149676
0.0095 0.0245 321.931326119
0.0095 0.0255 322.185018179
0.0095 0.0265 322.19917123
0.0095 0.0275 322.362615069
0.0095 0.0285 323.122747515
0.0095 0.0295 324.006058224
0.0095 0.0305 325.366630556
0.0095 0.0315 326.792918364
0.0105 -0.0315 293.643107885
0.0105 -0.0305 293.56896656
0.0105 -0.0295 293.489635373
0.0105 -0.0285 293.401461796
0.0105 -0.0275 293.304258032
0.0105 -0.0265 293.331450368
0.0105 -0.0255 293.407882204
0.0105 -0.0245 294.207549139
0.0105 -0.0235 295.423338947
0.0105 -0.0225 296.764701665
0.0105 -0.0215 301.535313309
0.0105 -0.0205 308.193440127
0.0105 -0.0195 313.26309329
0.0105 -0.0185 314.552336289
0.0105 -0.0175 314.953595672
0.0105 -0.0165 315.10711535
0.0105 -0.0155 315.128542188
0.0105 -0.0145 315.046910757
0.0105 -0.0135 315.050175624
0.0105 -0.0125 315.081066741
0.0105 -0.0115 315.040026627
0.0105 -0.0105 315.162850369
0.0105 -0.0095 315.262717578
0.0105 -0.0085 315.281032826
0.0105 -0.0075 315.529252726
0.0105 -0.0065 315.666245885
0.0105 -0.0055 315.745762037
0.0105 -0.0045 316.019677224
0.0105 -0.0035 316.120621493
0.0105 -0.0025 316.205094886
0.0105 -0.0015 316.384419409
0.0105 -0.0005 316.393407716
0.0105 0.0005 316.390329321
0.0105 0.0015 316.379853096
0.0105 0.0025 316.298277992
0.0105 0.0035 316.144177086
0.0105 0.0045 315.941325528
0.0105 0.0055 315.782506801
0.0105 0.0065 315.478481661
0.0105 0.0075 315.163195877
0.0105 0.0085 314.9586531
0.0105 0.0095 314.554783581
0.0105 0.0105 314.219553221
0.0105 0.0115 314.030470074
0.0105 0.0125 313.624676418
0.0105 0.0135 313.377661047
0.0105 0.0145 313.278019501
0.0105 0.0155 313.004748061
0.0105 0.0165 313.007677465
0.0105 0.0175 313.166146188
0.0105 0.0185 313.210007768
0.0105 0.0195 313.887827529
0.0105 0.0205 314.780802226
0.0105 0.0215 315.565394679
0.0105 0.0225 317.306952943
0.0105 0.0235 319.187614312
0.0105 0.0245 321.070285297
0.0105 0.0255 322.567763989
0.0105 0.0265 322.656535919
0.0105 0.0275 322.846390537
0.0105 0.0285 323.604736071
0.0105 0.0295 324.306278859
0.0105 0.0305 325.56714264
0.0105 0.0315 326.977188787
0.0115 -0.0315 293.62424558
0.0115 -0.0305 293.54312006
0.0115 -0.0295 293.462331208
0.0115 -0.0285 293.383265447
0.0115 -0.0275 293.304199685
0.0115 -0.0265 293.42511113
0.0115 -0.0255 293.598937398
0.0115 -0.0245 294.341881803
0.0115 -0.0235 295.753869504
0.0115 -0.0225 297.165857205
0.0115 -0.0215 303.051650837
0.0115 -0.0205 309.577528095
0.0115 -0.0195 313.030577142
0.0115 -0.0185 314.248718631
0.0115 -0.0175 315.022128261
0.0115 -0.0165 315.057173401
0.0115 -0.0155 315.092218542
0.0115 -0.0145 315.090383039
0.0115 -0.0135 315.156021485
0.0115 -0.0125 315.221659932
0.0115 -0.0115 315.286783295
0.0115 -0.0105 315.460066788
0.0115 -0.0095 315.633350281
0.0115 -0.0085 315.803363198
0.0115 -0.0075 316.069997707
0.0115 -0.0065 316.332192759
0.0115 -0.0055 316.540782355
0.0115 -0.0045 316.814697542
0.0115 -0.0035 317.049830415
0.0115 -0.0025 317.210206752
0.0115 -0.0015 317.389531275
0.0115 -0.0005 317.509450128
0.0115 0.0005 317.505314316
0.0115 0.0015 317.501177782
0.0115 0.0025 317.441583768
0.0115 0.0035 317.226729337
0.0115 0.0045 317.011874905
0.0115 0.0055 316.770019529
0.0115 0.0065 316.399729119
0.0115 0.0075 316.02943871
0.0115 0.0085 315.674170661
0.0115 0.0095 315.227627708
0.0115 0.0105 314.781084754
0.0115 0.0115 314.416315061
0.0115 0.0125 313.999713866
0.0115 0.0135 313.583112672
0.0115 0.0145 313.331017283
0.0115 0.0155 313.057745843
0.0115 0.0165 312.784474402
0.0115 0.0175 312.813964588
0.0115 0.0185 312.877836379
0.0115 0.0195 312.905429442
0.0115 0.0205 313.587620472
0.0115 0.0215 314.309211727
0.0115 0.0225 315.364584108
0.0115 0.0235 317.218300958
0.0115 0.0245 319.072017808
0.0115 0.0255 320.759770584
0.0115 0.0265 322.338033882
0.0115 0.0275 323.330166005
0.0115 0.0285 323.910471013
0.0115 0.0295 324.475328894
0.0115 0.0305 325.749581439
0.0115 0.0315 327.161059976
0.0125 -0.0315 293.605561194
0.0125 -0.0305 293.515846611
0.0125 -0.0295 293.435027043
0.0125 -0.0285 293.371770903
0.0125 -0.0275 293.342433526
0.0125 -0.0265 293.542583374
0.0125 -0.0255 293.789992593
0.0125 -0.0245 294.476214467
0.0125 -0.0235 296.058858406
0.0125 -0.0225 297.755399795
0.0125 -0.0215 303.79282484
0.0125 -0.0205 310.280866195
0.0125 -0.0195 313.172788073
0.0125 -0.0185 314.303206934
0.0125 -0.0175 315.085112626
0.0125 -0.0165 315.140761059
0.0125 -0.0155 315.188332705
0.0125 -0.0145 315.33886452
0.0125 -0.0135 315.403823537
0.0125 -0.0125 315.468782553
0.0125 -0.0115 315.816575782
0.0125 -0.0105 315.994457241
0.0125 -0.0095 316.218741191
0.0125 -0.0085 316.697040989
0.0125 -0.0075 316.965406051
0.0125 -0.0065 317.333281453
0.0125 -0.0055 317.803107556
0.0125 -0.0045 318.0772195
0.0125 -0.0035 318.457836009
0.0125 -0.0025 318.780281063
0.0125 -0.0015 318.959467515
0.0125 -0.0005 319.17290238
0.0125 0.0005 319.238378833
0.0125 0.0015 319.235373075
0.0125 0.0025 319.136877643
0.0125 0.0035 318.937815767
0.0125 0.0045 318.726684921
0.0125 0.0055 318.287173004
0.0125 0.0065 317.919582115
0.0125 0.0075 317.548829034
0.0125 0.0085 316.872602472
0.0125 0.0095 316.431824005
0.0125 0.0105 315.941837711
0.0125 0.0115 315.222831878
0.0125 0.0125 314.811265957
0.0125 0.0135 314.325140931
0.0125 0.0145 313.705706258
0.0125 0.0155 313.45503005
0.0125 0.0165 313.108442363
0.0125 0.0175 312.683929763
0.0125 0.0185 312.747801554
0.0125 0.0195 312.663366326
0.0125 0.0205 312.967747453
0.0125 0.0215 313.620086983
0.0125 0.0225 314.229973653
0.0125 0.0235 315.44821452
0.0125 0.0245 317.073750319
0.0125 0.0255 318.75043757
0.0125 0.0265 320.588473364
0.0125 0.0275 322.459558167
0.0125 0.0285 323.93155806
0.0125 0.0295 324.644378929
0.0125 0.0305 325.931527476
0.0125 0.0315 327.195935424
0.0135 -0.0315 293.593430622
0.0135 -0.0305 293.503327349
0.0135 -0.0295 293.432975159
0.0135 -0.0285 293.420901528
0.0135 -0.0275 293.391564151
0.0135 -0.0265 293.585988958
0.0135 -0.0255 293.870247779
0.0135 -0.0245 294.852094494
0.0135 -0.0235 296.666591492
0.0135 -0.0225 298.363132881
0.0135 -0.0215 304.641643891
0.0135 -0.0205 311.016839429
0.0135 -0.0195 313.352787083
0.0135 -0.0185 314.510816995
0.0135 -0.0175 315.217001706
0.0135 -0.0165 315.30763342
0.0135 -0.0155 315.411422122
0.0135 -0.0145 315.59700591
0.0135 -0.0135 315.716794637
0.0135 -0.0125 315.958952084
0.0135 -0.0115 316.344710984
0.0135 -0.0105 316.629567723
0.0135 -0.0095 317.075064848
0.0135 -0.0085 317.624353664
0.0135 -0.0075 317.994893594
0.0135 -0.0065 318.56521151
0.0135 -0.0055 319.172082227
0.0135 -0.0045 319.526176831
0.0135 -0.0035 320.034970176
0.0135 -0.0025 320.54376352
0.0135 -0.0015 320.749815168
0.0135 -0.0005 320.985802703
0.0135 0.0005 321.198159915
0.0135 0.0015 321.150734895
0.0135 0.0025 321.019631852
0.0135 0.0035 320.870179685
0.0135 0.0045 320.534420967
0.0135 0.0055 320.06483207
0.0135 0.0065 319.631467589
0.0135 0.0075 319.062261321
0.0135 0.0085 318.366337996
0.0135 0.0095 317.785008142
0.0135 0.0105 317.089927204
0.0135 0.0115 316.310532211
0.0135 0.0125 315.726653405
0.0135 0.0135 315.050823599
0.0135 0.0145 314.32525091
0.0135 0.0155 313.880080708
0.0135 0.0165 313.409131229
0.0135 0.0175 312.898879288
0.0135 0.0185 312.555350489
0.0135 0.0195 312.459463183
0.0135 0.0205 312.362595994
0.0135 0.0215 312.728126023
0.0135 0.0225 313.293585567
0.0135 0.0235 314.511826434
0.0135 0.0245 315.629399801
0.0135 0.0255 317.299792678
0.0135 0.0265 319.28082276
0.0135 0.0275 321.141464417
0.0135 0.0285 322.61346431
0.0135 0.0295 324.350259391
0.0135 0.0305 325.864987912
0.0135 0.0315 327.112882985
0.0145 -0.0315 293.585759993
0.0145 -0.0305 293.506053174
0.0145 -0.0295 293.436692346
0.0145 -0.0285 293.434704385
0.0145 -0.0275 293.432716425
0.0145 -0.0265 293.70612621
0.0145 -0.0255 294.067742928
0.0145 -0.0245 295.045591612
0.0145 -0.0235 296.994693424
0.0145 -0.0225 299.069160362
0.0145 -0.0215 305.179080028
0.0145 -0.0205 311.312819037
0.0145 -0.0195 313.668494308
0.0145 -0.0185 314.73648809
0.0145 -0.0175 315.354266719
0.0145 -0.0165 315.492955545
0.0145 -0.0155 315.657096456
0.0145 -0.0145 315.846344983
0.0145 -0.0135 316.096804364
0.0145 -0.0125 316.507171208
0.0145 -0.0115 316.917538051
0.0145 -0.0105 317.466929462
0.0145 -0.0095 318.068760069
0.0145 -0.0085 318.618754932
0.0145 -0.0075 319.390694849
0.0145 -0.0065 319.997967857
0.0145 -0.0055 320.605240865
0.0145 -0.0045 321.368118816
0.0145 -0.0035 321.875842738
0.0145 -0.0025 322.383566659
0.0145 -0.0015 322.872368098
0.0145 -0.0005 323.10738335
0.0145 0.0005 323.342398602
0.0145 0.0015 323.373100051
0.0145 0.0025 323.24367688
0.0145 0.0035 323.093714899
0.0145 0.0045 322.662202704
0.0145 0.0055 322.198647715
0.0145 0.0065 321.648645674
0.0145 0.0075 320.910231492
0.0145 0.0085 320.222081878
0.0145 0.0095 319.36804876
0.0145 0.0105 318.524936701
0.0145 0.0115 317.747341346
0.0145 0.0125 316.770679973
0.0145 0.0135 316.008516268
0.0145 0.0145 315.261873528
0.0145 0.0155 314.399757715
0.0145 0.0165 313.822954005
0.0145 0.0175 313.357711252
0.0145 0.0185 312.789638348
0.0145 0.0195 312.536912909
0.0145 0.0205 312.438725154
0.0145 0.0215 312.337449831
0.0145 0.0225 312.348493161
0.0145 0.0235 313.288424573
0.0145 0.0245 314.228355984
0.0145 0.0255 315.900042111
0.0145 0.0265 317.935757426
0.0145 0.0275 319.914179629
0.0145 0.0285 321.884377377
0.0145 0.0295 323.854575125
0.0145 0.0305 325.418470003
0.0145 0.0315 326.921250421
0.0155 -0.0315 293.582769675
0.0155 -0.0305 293.509575152
0.0155 -0.0295 293.440409533
0.0155 -0.0285 293.451883524
0.0155 -0.0275 293.485731599
0.0155 -0.0265 293.826727818
0.0155 -0.0255 294.265238077
0.0155 -0.0245 295.239088729
0.0155 -0.0235 297.403389706
0.0155 -0.0225 299.741297715
0.0155 -0.0215 305.611529837
0.0155 -0.0205 311.608798645
0.0155 -0.0195 314.029604689
0.0155 -0.0185 314.984036327
0.0155 -0.0175 315.564844628
0.0155 -0.0165 315.735196171
0.0155 -0.0155 315.89598654
0.0155 -0.0145 316.224522726
0.0155 -0.0135 316.675417199
0.0155 -0.0125 317.253825932
0.0155 -0.0115 317.664192776
0.0155 -0.0105 318.461370947
0.0155 -0.0095 319.283081965
0.0155 -0.0085 319.862668095
0.0155 -0.0075 320.891520732
0.0155 -0.0065 321.747312225
0.0155 -0.0055 322.454990314
0.0155 -0.0045 323.430294024
0.0155 -0.0035 324.134268939
0.0155 -0.0025 324.708406742
0.0155 -0.0015 325.373837704
0.0155 -0.0005 325.726280828
0.0155 0.0005 325.927607219
0.0155 0.0015 326.10172843
0.0155 0.0025 326.013619379
0.0155 0.0035 325.712160776
0.0155 0.0045 325.330282832
0.0155 0.0055 324.868082337
0.0155 0.0065 324.078718756
0.0155 0.0075 323.228367595
0.0155 0.0085 322.540217982
0.0155 0.0095 321.405301254
0.0155 0.0105 320.32938041
0.0155 0.0115 319.504661209
0.0155 0.0125 318.298158351
0.0155 0.0135 317.315114055
0.0155 0.0145 316.474836187
0.0155 0.0155 315.412935275
0.0155 0.0165 314.57680621
0.0155 0.0175 313.81695803
0.0155 0.0185 313.222989175
0.0155 0.0195 312.62902032
0.0155 0.0205 312.507078608
0.0155 0.0215 312.328978274
0.0155 0.0225 312.175707234
0.0155 0.0235 312.32010151
0.0155 0.0245 312.827312166
0.0155 0.0255 314.500291545
0.0155 0.0265 316.218559795
0.0155 0.0275 318.206695729
0.0155 0.0285 321.102683417
0.0155 0.0295 323.358890859
0.0155 0.0305 324.907434406
0.0155 0.0315 326.203812584
0.0165 -0.0315 293.576029963
0.0165 -0.0305 293.502835441
0.0165 -0.0295 293.461248335
0.0165 -0.0285 293.512740112
0.0165 -0.0275 293.546588187
0.0165 -0.0265 293.88795274
0.0165 -0.0255 294.359634694
0.0165 -0.0245 295.664362966
0.0165 -0.0235 298.069767077
0.0165 -0.0225 300.413435068
0.0165 -0.0215 306.283667191
0.0165 -0.0205 312.005212774
0.0165 -0.0195 314.198301606
0.0165 -0.0185 315.129359493
0.0165 -0.0175 315.744260167
0.0165 -0.0165 315.936426722
0.0165 -0.0155 316.325765359
0.0165 -0.0145 316.771186647
0.0165 -0.0135 317.248583142