% Model:              SIMBench260525.mph
% Version:            COMSOL 6.2.0.339
% Date:               May 27 2026, 17:29
% Dimension:          2
% Nodes:              4096
% Expressions:        1
% Description:        温度
% Length unit:        m
% x                       y                        T (K)
% mirrored_by_python_y_to_minus_y, coord_match_decimals=12
0.0005 -0.0315 366.798911316
0.0005 -0.0305 364.625455397
0.0005 -0.0295 362.451999479
0.0005 -0.0285 359.103280611
0.0005 -0.0275 355.855491923
0.0005 -0.0265 352.630539163
0.0005 -0.0255 350.096473273
0.0005 -0.0245 347.883492961
0.0005 -0.0235 345.604806919
0.0005 -0.0225 343.381840159
0.0005 -0.0215 341.405228802
0.0005 -0.0205 338.804699624
0.0005 -0.0195 333.488721898
0.0005 -0.0185 327.665650068
0.0005 -0.0175 322.99611658
0.0005 -0.0165 315.480175954
0.0005 -0.0155 307.556220147
0.0005 -0.0145 301.851099342
0.0005 -0.0135 300.229782132
0.0005 -0.0125 298.608464921
0.0005 -0.0115 295.810882512
0.0005 -0.0105 294.573519508
0.0005 -0.0095 293.404414514
0.0005 -0.0085 293.103862767
0.0005 -0.0075 293.107810902
0.0005 -0.0065 293.506343573
0.0005 -0.0055 295.070065089
0.0005 -0.0045 296.735013827
0.0005 -0.0035 300.357104939
0.0005 -0.0025 301.654923937
0.0005 -0.0015 302.952742935
0.0005 -0.0005 308.691958268
0.0005 0.0005 317.686782796
0.0005 0.0015 326.681607324
0.0005 0.0025 331.811183772
0.0005 0.0035 336.010357201
0.0005 0.0045 340.209530629
0.0005 0.0055 342.52543927
0.0005 0.0065 343.772636408
0.0005 0.0075 345.019833546
0.0005 0.0085 345.998778969
0.0005 0.0095 346.837727119
0.0005 0.0105 347.676675269
0.0005 0.0115 348.223250737
0.0005 0.0125 349.140464517
0.0005 0.0135 350.057678297
0.0005 0.0145 350.62378221
0.0005 0.0155 351.777461906
0.0005 0.0165 352.931141602
0.0005 0.0175 353.801605462
0.0005 0.0185 355.318463555
0.0005 0.0195 356.835321647
0.0005 0.0205 358.394678657
0.0005 0.0215 360.978679082
0.0005 0.0225 363.562679507
0.0005 0.0235 366.79235846
0.0005 0.0245 370.949005659
0.0005 0.0255 375.105652859
0.0005 0.0265 379.841751764
0.0005 0.0275 384.061750319
0.0005 0.0285 388.281748873
0.0005 0.0295 391.779986162
0.0005 0.0305 393.621229431
0.0005 0.0315 395.444312715
0.0015 -0.0315 366.560141722
0.0015 -0.0305 364.778216734
0.0015 -0.0295 362.027558923
0.0015 -0.0285 358.377394003
0.0015 -0.0275 355.03901235
0.0015 -0.0265 352.069600895
0.0015 -0.0255 349.311507593
0.0015 -0.0245 346.914003388
0.0015 -0.0235 344.451184599
0.0015 -0.0225 341.869155297
0.0015 -0.0215 339.845383954
0.0015 -0.0205 336.250862661
0.0015 -0.0195 332.24472397
0.0015 -0.0185 326.64040209
0.0015 -0.0175 323.086635814
0.0015 -0.0165 318.259663922
0.0015 -0.0155 311.137371516
0.0015 -0.0145 306.332124186
0.0015 -0.0135 302.945055394
0.0015 -0.0125 300.437584258
0.0015 -0.0115 296.665941072
0.0015 -0.0105 294.552308166
0.0015 -0.0095 293.712389789
0.0015 -0.0085 293.053038568
0.0015 -0.0075 293.027886197
0.0015 -0.0065 293.9153536
0.0015 -0.0055 295.023188149
0.0015 -0.0045 297.671104446
0.0015 -0.0035 302.776808663
0.0015 -0.0025 305.889461484
0.0015 -0.0015 309.110884851
0.0015 -0.0005 315.347198613
0.0015 0.0005 323.107107484
0.0015 0.0015 330.086463111
0.0015 0.0025 334.29324898
0.0015 0.0035 338.49583683
0.0015 0.0045 341.788908083
0.0015 0.0055 343.836050135
0.0015 0.0065 345.443562755
0.0015 0.0075 346.55958176
0.0015 0.0085 347.496688925
0.0015 0.0095 348.380399025
0.0015 0.0105 349.012739565
0.0015 0.0115 349.365515344
0.0015 0.0125 350.020125429
0.0015 0.0135 350.67128451
0.0015 0.0145 350.963985429
0.0015 0.0155 351.718437168
0.0015 0.0165 352.638646414
0.0015 0.0175 353.236806473
0.0015 0.0185 354.329828746
0.0015 0.0195 355.752707243
0.0015 0.0205 357.037792045
0.0015 0.0215 359.007899775
0.0015 0.0225 361.827591738
0.0015 0.0235 365.041647727
0.0015 0.0245 368.696936634
0.0015 0.0255 373.230121816
0.0015 0.0265 378.249000472
0.0015 0.0275 382.90523335
0.0015 0.0285 386.994296689
0.0015 0.0295 390.968166123
0.0015 0.0305 393.345465262
0.0015 0.0315 394.669022811
0.0025 -0.0315 366.308159888
0.0025 -0.0305 364.62451027
0.0025 -0.0295 361.70419557
0.0025 -0.0285 357.876395207
0.0025 -0.0275 354.26675593
0.0025 -0.0265 351.516039445
0.0025 -0.0255 348.798867007
0.0025 -0.0245 345.872552653
0.0025 -0.0235 343.209412617
0.0025 -0.0225 340.632915411
0.0025 -0.0215 337.260951815
0.0025 -0.0205 333.514379619
0.0025 -0.0195 329.767807423
0.0025 -0.0185 326.233718231
0.0025 -0.0175 322.692312845
0.0025 -0.0165 319.150907459
0.0025 -0.0155 315.124131377
0.0025 -0.0145 310.3169179
0.0025 -0.0135 305.514340906
0.0025 -0.0125 301.615487288
0.0025 -0.0115 297.845544055
0.0025 -0.0105 294.616270872
0.0025 -0.0095 293.958819549
0.0025 -0.0085 293.301368227
0.0025 -0.0075 293.338295229
0.0025 -0.0065 294.244951843
0.0025 -0.0055 295.151608457
0.0025 -0.0045 299.186868643
0.0025 -0.0035 304.320175923
0.0025 -0.0025 309.453483203
0.0025 -0.0015 315.754821588
0.0025 -0.0005 321.98479575
0.0025 0.0005 328.127435729
0.0025 0.0015 332.272820374
0.0025 0.0025 336.478285593
0.0025 0.0035 340.695027628
0.0025 0.0045 342.943012516
0.0025 0.0055 344.98997963
0.0025 0.0065 347.088297486
0.0025 0.0075 348.238760552
0.0025 0.0085 349.18216504
0.0025 0.0095 350.134297545
0.0025 0.0105 350.57342614
0.0025 0.0115 350.938497919
0.0025 0.0125 351.27063776
0.0025 0.0135 351.481186178
0.0025 0.0145 351.765645999
0.0025 0.0155 352.01512365
0.0025 0.0165 352.458395857
0.0025 0.0175 353.04123051
0.0025 0.0185 353.615153784
0.0025 0.0195 354.733109703
0.0025 0.0205 356.00658533
0.0025 0.0215 357.280060957
0.0025 0.0225 360.213036934
0.0025 0.0235 363.422068703
0.0025 0.0245 366.631894833
0.0025 0.0255 371.205472885
0.0025 0.0265 376.173796429
0.0025 0.0275 381.227368148
0.0025 0.0285 385.614469841
0.0025 0.0295 389.574764645
0.0025 0.0305 392.165256473
0.0025 0.0315 393.893732907
0.0035 -0.0315 366.294040395
0.0035 -0.0305 364.549370179
0.0035 -0.0295 361.848515932
0.0035 -0.0285 358.169262401
0.0035 -0.0275 354.913113954
0.0035 -0.0265 351.363520232
0.0035 -0.0255 348.646347793
0.0035 -0.0245 345.182265768
0.0035 -0.0235 341.610776931
0.0035 -0.0225 339.023884598
0.0035 -0.0215 334.06296073
0.0035 -0.0205 329.879921184
0.0035 -0.0195 326.288273344
0.0035 -0.0185 323.123406102
0.0035 -0.0175 319.628945838
0.0035 -0.0165 317.02942296
0.0035 -0.0155 315.326991682
0.0035 -0.0145 310.519778205
0.0035 -0.0135 305.856716235
0.0035 -0.0125 301.482095955
0.0035 -0.0115 297.712152722
0.0035 -0.0105 295.272068985
0.0035 -0.0095 293.833289373
0.0035 -0.0085 293.24324486
0.0035 -0.0075 293.33199019
0.0035 -0.0065 294.044993972
0.0035 -0.0055 295.705828707
0.0035 -0.0045 298.882217096
0.0035 -0.0035 304.015524376
0.0035 -0.0025 310.180771899
0.0035 -0.0015 317.122692787
0.0035 -0.0005 323.352666949
0.0035 0.0005 327.894174368
0.0035 0.0015 331.56147602
0.0035 0.0025 335.766941238
0.0035 0.0035 340.181552927
0.0035 0.0045 344.001830967
0.0035 0.0055 346.048798081
0.0035 0.0065 348.973087462
0.0035 0.0075 351.686836497
0.0035 0.0085 352.630240984
0.0035 0.0095 353.711994703
0.0035 0.0105 354.657608584
0.0035 0.0115 355.022680364
0.0035 0.0125 354.885654346
0.0035 0.0135 354.658967302
0.0035 0.0145 354.943427123
0.0035 0.0155 354.563338796
0.0035 0.0165 354.162206175
0.0035 0.0175 354.745040828
0.0035 0.0185 354.795139699
0.0035 0.0195 354.945903562
0.0035 0.0205 356.219379189
0.0035 0.0215 357.195553856
0.0035 0.0225 358.509759036
0.0035 0.0235 361.718790804
0.0035 0.0245 364.937947203
0.0035 0.0255 368.258211304
0.0035 0.0265 373.226534848
0.0035 0.0275 378.548434074
0.0035 0.0285 383.960068483
0.0035 0.0295 388.127715969
0.0035 0.0305 390.225623895
0.0035 0.0315 392.333461242
0.0045 -0.0315 366.608561907
0.0045 -0.0305 364.672494364
0.0045 -0.0295 362.276108996
0.0045 -0.0285 359.05284219
0.0045 -0.0275 355.821098409
0.0045 -0.0265 352.206848741
0.0045 -0.0255 348.592599074
0.0045 -0.0245 344.491978882
0.0045 -0.0235 340.419700221
0.0045 -0.0225 336.141926481
0.0045 -0.0215 331.181002613
0.0045 -0.0205 326.24546275
0.0045 -0.0195 322.992784163
0.0045 -0.0185 319.827916921
0.0045 -0.0175 316.658539601
0.0045 -0.0165 315.208884828
0.0045 -0.0155 313.759230054
0.0045 -0.0145 310.776986546
0.0045 -0.0135 306.199091564
0.0045 -0.0125 301.621196581
0.0045 -0.0115 298.262868041
0.0045 -0.0105 296.061032825
0.0045 -0.0095 293.859197608
0.0045 -0.0085 293.538381838
0.0045 -0.0075 293.627127168
0.0045 -0.0065 293.845036102
0.0045 -0.0055 296.680885604
0.0045 -0.0045 299.805231565
0.0045 -0.0035 303.816226618
0.0045 -0.0025 310.952929623
0.0045 -0.0015 318.089632627
0.0045 -0.0005 324.209985273
0.0045 0.0005 327.660913007
0.0045 0.0015 331.111840742
0.0045 0.0025 335.139184464
0.0045 0.0035 339.668078225
0.0045 0.0045 344.196971987
0.0045 0.0055 347.460637473
0.0045 0.0065 350.857877438
0.0045 0.0075 354.255117403
0.0045 0.0085 356.135307938
0.0045 0.0095 357.289691861
0.0045 0.0105 358.444075785
0.0045 0.0115 358.896373224
0.0045 0.0125 358.500670931
0.0045 0.0135 358.104968639
0.0045 0.0145 357.844338141
0.0045 0.0155 357.111553942
0.0045 0.0165 356.378769742
0.0045 0.0175 356.238106117
0.0045 0.0185 355.975125614
0.0045 0.0195 355.712145111
0.0045 0.0205 356.331296943
0.0045 0.0215 357.089970515
0.0045 0.0225 357.848644086
0.0045 0.0235 360.018377991
0.0045 0.0245 363.243999573
0.0045 0.0255 366.469621155
0.0045 0.0265 370.506637258
0.0045 0.0275 375.937778867
0.0045 0.0285 381.368920477
0.0045 0.0295 386.491576668
0.0045 0.0305 388.761590279
0.0045 0.0315 391.025001271
0.0055 -0.0315 366.927755937
0.0055 -0.0305 365.313255716
0.0055 -0.0295 363.192716508
0.0055 -0.0285 359.948711234
0.0055 -0.0275 356.713155173
0.0055 -0.0265 352.246796313
0.0055 -0.0255 347.063653696
0.0055 -0.0245 342.639530748
0.0055 -0.0235 338.323544201
0.0055 -0.0225 332.243771319
0.0055 -0.0215 327.27456145
0.0055 -0.0205 323.040347583
0.0055 -0.0195 319.777088408
0.0055 -0.0185 316.61106197
0.0055 -0.0175 314.987117791
0.0055 -0.0165 313.787519684
0.0055 -0.0155 312.334805381
0.0055 -0.0145 310.635828907
0.0055 -0.0135 306.446586372
0.0055 -0.0125 301.884818153
0.0055 -0.0115 298.158035283
0.0055 -0.0105 295.965033116
0.0055 -0.0095 294.076987227
0.0055 -0.0085 293.519758498
0.0055 -0.0075 293.614247303
0.0055 -0.0065 294.197668781
0.0055 -0.0055 296.479807841
0.0055 -0.0045 299.622829613
0.0055 -0.0035 304.299766311
0.0055 -0.0025 311.093241052
0.0055 -0.0015 318.235292556
0.0055 -0.0005 322.507471872
0.0055 0.0005 325.952276792
0.0055 0.0015 329.41317232
0.0055 0.0025 333.221785346
0.0055 0.0035 337.74843517
0.0055 0.0045 342.275084995
0.0055 0.0055 348.284090035
0.0055 0.0065 351.672635066
0.0055 0.0075 355.061180098
0.0055 0.0085 359.336374855
0.0055 0.0095 360.486918866
0.0055 0.0105 361.637462877
0.0055 0.0115 362.766210099
0.0055 0.0125 362.406817079
0.0055 0.0135 362.012541062
0.0055 0.0145 361.006059891
0.0055 0.0155 360.251316359
0.0055 0.0165 359.512562283
0.0055 0.0175 358.060626216
0.0055 0.0185 357.741916148
0.0055 0.0195 357.459086226
0.0055 0.0205 356.702087197
0.0055 0.0215 357.466690751
0.0055 0.0225 358.231294305
0.0055 0.0235 358.841994977
0.0055 0.0245 361.970558916
0.0055 0.0255 365.260011004
0.0055 0.0265 369.094861277
0.0055 0.0275 374.070694207
0.0055 0.0285 379.526128487
0.0055 0.0295 385.079988012
0.0055 0.0305 387.400416994
0.0055 0.0315 389.7165413
0.0065 -0.0315 367.610845185
0.0065 -0.0305 366.118412249
0.0065 -0.0295 364.114786068
0.0065 -0.0285 360.803162797
0.0065 -0.0275 356.885500692
0.0065 -0.0265 351.170010597
0.0065 -0.0255 345.520483655
0.0065 -0.0245 340.734207069
0.0065 -0.0235 334.987798469
0.0065 -0.0225 328.722873334
0.0065 -0.0215 323.270891818
0.0065 -0.0205 319.939621396
0.0065 -0.0195 316.608350974
0.0065 -0.0185 313.949267828
0.0065 -0.0175 313.217257897
0.0065 -0.0165 312.4563456
0.0065 -0.0155 310.881173254
0.0065 -0.0145 309.130408558
0.0065 -0.0135 306.671312006
0.0065 -0.0125 302.548054059
0.0065 -0.0115 298.72005998
0.0065 -0.0105 295.641243838
0.0065 -0.0095 294.52885999
0.0065 -0.0085 293.688460465
0.0065 -0.0075 293.504312414
0.0065 -0.0065 294.736143062
0.0065 -0.0055 295.990985305
0.0065 -0.0045 299.375949593
0.0065 -0.0035 305.08158694
0.0065 -0.0025 310.970981995
0.0065 -0.0015 316.998187696
0.0065 -0.0005 320.261594448
0.0065 0.0005 323.581665673
0.0065 0.0015 327.205456906
0.0065 0.0025 331.063668377
0.0065 0.0035 335.181114808
0.0065 0.0045 340.541028667
0.0065 0.0055 346.833228925
0.0065 0.0065 352.016798016
0.0065 0.0075 355.903599218
0.0065 0.0085 360.304527811
0.0065 0.0095 363.531550573
0.0065 0.0105 364.669705176
0.0065 0.0115 365.795816604
0.0065 0.0125 366.420583812
0.0065 0.0135 365.670859658
0.0065 0.0145 364.592729374
0.0065 0.0155 363.615242057
0.0065 0.0165 362.467500295
0.0065 0.0175 360.912828864
0.0065 0.0185 359.783804329
0.0065 0.0195 359.234829156
0.0065 0.0205 358.306126107
0.0065 0.0215 358.096595801
0.0065 0.0225 358.77468724
0.0065 0.0235 359.345696679
0.0065 0.0245 360.775526456
0.0065 0.0255 364.295208207
0.0065 0.0265 368.20072204
0.0065 0.0275 372.204563045
0.0065 0.0285 377.840412502
0.0065 0.0295 383.476261958
0.0065 0.0305 385.988828339
0.0065 0.0315 388.40069489
0.0075 -0.0315 368.096269441
0.0075 -0.0305 366.673633211
0.0075 -0.0295 364.674733383
0.0075 -0.0285 360.686443956
0.0075 -0.0275 356.768781851
0.0075 -0.0265 351.210567118
0.0075 -0.0255 345.262732048
0.0075 -0.0245 337.514150869
0.0075 -0.0235 331.312023971
0.0075 -0.0225 325.004183808
0.0075 -0.0215 320.488649724
0.0075 -0.0205 317.158009374
0.0075 -0.0195 313.815239035
0.0075 -0.0185 312.750061271
0.0075 -0.0175 312.001783722
0.0075 -0.0165 311.253506173
0.0075 -0.0155 310.31743766
0.0075 -0.0145 308.558753257
0.0075 -0.0135 306.471580245
0.0075 -0.0125 302.760165605
0.0075 -0.0115 298.939867858
0.0075 -0.0105 295.751998317
0.0075 -0.0095 294.744444915
0.0075 -0.0085 293.916749761
0.0075 -0.0075 293.71380918
0.0075 -0.0065 294.982073532
0.0075 -0.0055 296.250337883
0.0075 -0.0045 299.598918611
0.0075 -0.0035 305.332485946
0.0075 -0.0025 311.066053281
0.0075 -0.0015 315.436385794
0.0075 -0.0005 318.685959163
0.0075 0.0005 321.935532532
0.0075 0.0015 324.963322602
0.0075 0.0025 328.82282427
0.0075 0.0035 332.723827638
0.0075 0.0045 338.558164637
0.0075 0.0055 344.834358584
0.0075 0.0065 351.229531115
0.0075 0.0075 356.390445041
0.0075 0.0085 360.773262405
0.0075 0.0095 365.15946899
0.0075 0.0105 367.193188902
0.0075 0.0115 368.297412138
0.0075 0.0125 369.317352974
0.0075 0.0135 368.735551734
0.0075 0.0145 367.649360506
0.0075 0.0155 366.520941565
0.0075 0.0165 365.041842492
0.0075 0.0175 363.51985643
0.0075 0.0185 361.986300084
0.0075 0.0195 360.819550289
0.0075 0.0205 359.894253352
0.0075 0.0215 358.968855401
0.0075 0.0225 359.275404155
0.0075 0.0235 359.846728346
0.0075 0.0245 360.418052538
0.0075 0.0255 363.337419674
0.0075 0.0265 367.194348787
0.0075 0.0275 371.220910042
0.0075 0.0285 376.551981619
0.0075 0.0295 381.883053196
0.0075 0.0305 384.754014149
0.0075 0.0315 387.257336392
0.0085 -0.0315 368.552005257
0.0085 -0.0305 366.937519307
0.0085 -0.0295 364.939190764
0.0085 -0.0285 360.800211483
0.0085 -0.0275 356.661232202
0.0085 -0.0265 349.891001527
0.0085 -0.0255 341.157313411
0.0085 -0.0245 333.033746911
0.0085 -0.0235 327.142438504
0.0085 -0.0225 320.941797734
0.0085 -0.0215 317.796845906
0.0085 -0.0205 314.646020619
0.0085 -0.0195 312.434728621
0.0085 -0.0185 311.98886347
0.0085 -0.0175 311.360664087
0.0085 -0.0165 310.869632869
0.0085 -0.0155 310.562414579
0.0085 -0.0145 309.057545842
0.0085 -0.0135 305.95843686
0.0085 -0.0125 302.430819492
0.0085 -0.0115 298.610521746
0.0085 -0.0105 296.39587962
0.0085 -0.0095 294.626854162
0.0085 -0.0085 293.895191123
0.0085 -0.0075 294.010707296
0.0085 -0.0065 294.6986609
0.0085 -0.0055 296.47102451
0.0085 -0.0045 299.503634687
0.0085 -0.0035 304.386081837
0.0085 -0.0025 309.990879565
0.0085 -0.0015 315.38862327
0.0085 -0.0005 318.866054216
0.0085 0.0005 321.098271375
0.0085 0.0015 322.452812917
0.0085 0.0025 326.312314584
0.0085 0.0035 330.563315119
0.0085 0.0045 335.255343005
0.0085 0.0055 341.531536952
0.0085 0.0065 348.639888564
0.0085 0.0075 355.748922387
0.0085 0.0085 360.13173975
0.0085 0.0095 364.535025634
0.0085 0.0105 368.703587788
0.0085 0.0115 369.807811023
0.0085 0.0125 370.4583645
0.0085 0.0135 370.905238567
0.0085 0.0145 369.819047339
0.0085 0.0155 368.489316464
0.0085 0.0165 367.087091427
0.0085 0.0175 365.565105365
0.0085 0.0185 363.827844922
0.0085 0.0195 362.203114915
0.0085 0.0205 361.277817978
0.0085 0.0215 360.351657299
0.0085 0.0225 359.764216253
0.0085 0.0235 360.335540444
0.0085 0.0245 360.846489519
0.0085 0.0255 363.13690143
0.0085 0.0265 366.191905511
0.0085 0.0275 370.278006172
0.0085 0.0285 375.660211828
0.0085 0.0295 381.085064268
0.0085 0.0305 383.817594471
0.0085 0.0315 386.130258651
0.0095 -0.0315 368.430723005
0.0095 -0.0305 367.131503306
0.0095 -0.0295 365.203648146
0.0095 -0.0285 360.806422587
0.0095 -0.0275 354.09004669
0.0095 -0.0265 345.578222221
0.0095 -0.0255 336.541181698
0.0095 -0.0245 328.553342954
0.0095 -0.0235 322.692400771
0.0095 -0.0225 318.354259232
0.0095 -0.0215 315.254352391
0.0095 -0.0205 312.172462106
0.0095 -0.0195 311.691259112
0.0095 -0.0185 311.233914963
0.0095 -0.0175 310.845888409
0.0095 -0.0165 310.533718906
0.0095 -0.0155 310.221549404
0.0095 -0.0145 309.02977672
0.0095 -0.0135 305.505716726
0.0095 -0.0125 301.981656731
0.0095 -0.0115 299.10920503
0.0095 -0.0105 297.0175295
0.0095 -0.0095 294.920419632
0.0095 -0.0085 294.307435342
0.0095 -0.0075 294.422951516
0.0095 -0.0065 294.538467689
0.0095 -0.0055 297.208547237
0.0095 -0.0045 300.241157415
0.0095 -0.0035 303.439677728
0.0095 -0.0025 308.860350523
0.0095 -0.0015 314.258094229
0.0095 -0.0005 318.914071126
0.0095 0.0005 320.208441012
0.0095 0.0015 321.502810897
0.0095 0.0025 323.932372904
0.0095 0.0035 328.4028026
0.0095 0.0045 332.873232296
0.0095 0.0055 338.59345041
0.0095 0.0065 346.050246013
0.0095 0.0075 353.507041615
0.0095 0.0085 359.499985746
0.0095 0.0095 363.910582277
0.0095 0.0105 368.321178809
0.0095 0.0115 371.099617199
0.0095 0.0125 371.599376025
0.0095 0.0135 372.084459871
0.0095 0.0145 371.815577259
0.0095 0.0155 370.432148307
0.0095 0.0165 369.048719355
0.0095 0.0175 367.487429734
0.0095 0.0185 365.66938976
0.0095 0.0195 363.851349785
0.0095 0.0205 362.661248981
0.0095 0.0215 361.734459196
0.0095 0.0225 360.798156029
0.0095 0.0235 360.769254532
0.0095 0.0245 361.269929349
0.0095 0.0255 363.369051038
0.0095 0.0265 366.409023015
0.0095 0.0275 369.827513174
0.0095 0.0285 374.864680091
0.0095 0.0295 380.28953253
0.0095 0.0305 383.022048377
0.0095 0.0315 385.457610921
0.0105 -0.0315 367.968026986
0.0105 -0.0305 366.737877652
0.0105 -0.0295 364.202537687
0.0105 -0.0285 356.940893062
0.0105 -0.0275 350.224517165
0.0105 -0.0265 341.732334361
0.0105 -0.0255 332.498360855
0.0105 -0.0245 325.067301124
0.0105 -0.0235 320.74070071
0.0105 -0.0225 316.262851923
0.0105 -0.0215 313.006968785
0.0105 -0.0205 311.804881189
0.0105 -0.0195 311.275089551
0.0105 -0.0185 310.817745402
0.0105 -0.0175 310.682188946
0.0105 -0.0165 310.522696335
0.0105 -0.0155 310.210526833
0.0105 -0.0145 308.524926649
0.0105 -0.0135 305.689069106
0.0105 -0.0125 302.196833231
0.0105 -0.0115 299.004983913
0.0105 -0.0105 296.74085554
0.0105 -0.0095 294.954632196
0.0105 -0.0085 294.195562007
0.0105 -0.0075 294.312714565
0.0105 -0.0065 294.819442574
0.0105 -0.0055 296.522933409
0.0105 -0.0045 299.600407724
0.0105 -0.0035 303.503657604
0.0105 -0.0025 308.431028515
0.0105 -0.0015 313.806833056
0.0105 -0.0005 317.728973664
0.0105 0.0005 319.577081322
0.0105 0.0015 320.875704222
0.0105 0.0025 322.185090129
0.0105 0.0035 325.904264269
0.0105 0.0045 330.374532679
0.0105 0.0055 335.128694944
0.0105 0.0065 342.205310499
0.0105 0.0075 349.640824204
0.0105 0.0085 357.246710765
0.0105 0.0095 362.095406376
0.0105 0.0105 366.484661321
0.0105 0.0115 370.654224083
0.0105 0.0125 371.795377514
0.0105 0.0135 372.213160915
0.0105 0.0145 372.094040124
0.0105 0.0155 370.965906266
0.0105 0.0165 369.610350883
0.0105 0.0175 368.310622506
0.0105 0.0185 366.713313064
0.0105 0.0195 365.116003621
0.0105 0.0205 363.765633882
0.0105 0.0215 362.722124114
0.0105 0.0225 361.66129605
0.0105 0.0235 361.674330721
0.0105 0.0245 361.917366149
0.0105 0.0255 363.530125451
0.0105 0.0265 366.50444712
0.0105 0.0275 369.919148355
0.0105 0.0285 374.846360198
0.0105 0.0295 379.750307183
0.0105 0.0305 382.4457588
0.0105 0.0315 384.93603555
0.0115 -0.0315 367.212916791
0.0115 -0.0305 364.951743451
0.0115 -0.0295 362.118428759
0.0115 -0.0285 354.301613515
0.0115 -0.0275 346.484798272
0.0115 -0.0265 338.093445761
0.0115 -0.0255 329.275936245
0.0115 -0.0245 321.87197462
0.0115 -0.0235 318.089402324
0.0115 -0.0225 314.306830028
0.0115 -0.0215 311.981524989
0.0115 -0.0205 311.437300271
0.0115 -0.0195 310.893075553
0.0115 -0.0185 310.564881029
0.0115 -0.0175 310.51675692
0.0115 -0.0165 310.468632811
0.0115 -0.0155 309.454522731
0.0115 -0.0145 307.647509001
0.0115 -0.0135 305.840495271
0.0115 -0.0125 302.572594515
0.0115 -0.0115 299.380745198
0.0115 -0.0105 296.46418158
0.0115 -0.0095 295.390063319
0.0115 -0.0085 294.505448358
0.0115 -0.0075 294.191336962
0.0115 -0.0065 295.233121276
0.0115 -0.0055 296.439965541
0.0115 -0.0045 299.251275851
0.0115 -0.0035 303.682290596
0.0115 -0.0025 308.113469945
0.0115 -0.0015 313.244466667
0.0115 -0.0005 316.141362078
0.0115 0.0005 318.999001997
0.0115 0.0015 320.302580128
0.0115 0.0025 321.614858917
0.0115 0.0035 323.347396879
0.0115 0.0045 327.971159012
0.0115 0.0055 332.757342633
0.0115 0.0065 338.179734327
0.0115 0.0075 345.71640376
0.0115 0.0085 353.329100939
0.0115 0.0095 360.178162819
0.0115 0.0105 364.426923666
0.0115 0.0115 368.596428329
0.0115 0.0125 371.978950498
0.0115 0.0135 372.002768362
0.0115 0.0145 371.883647571
0.0115 0.0155 371.503144841
0.0115 0.0165 370.245537836
0.0115 0.0175 368.987930831
0.0115 0.0185 367.416149813
0.0115 0.0195 365.738313177
0.0115 0.0205 364.476882872
0.0115 0.0215 363.525900419
0.0115 0.0225 362.52443607
0.0115 0.0235 362.615656247
0.0115 0.0245 362.675466433
0.0115 0.0255 364.202171131
0.0115 0.0265 366.764589811
0.0115 0.0275 370.010783536
0.0115 0.0285 374.85821243
0.0115 0.0295 379.69235183
0.0115 0.0305 382.26014176
0.0115 0.0315 384.484961514
0.0125 -0.0315 364.994189081
0.0125 -0.0305 362.852996688
0.0125 -0.0295 360.03431983
0.0125 -0.0285 351.980301515
0.0125 -0.0275 342.70488353
0.0125 -0.0265 334.338405562
0.0125 -0.0255 326.141957342
0.0125 -0.0245 318.676648116
0.0125 -0.0235 315.037279213
0.0125 -0.0225 312.590881516
0.0125 -0.0215 311.55177276
0.0125 -0.0205 311.012888353
0.0125 -0.0195 310.471812743
0.0125 -0.0185 310.448924924
0.0125 -0.0175 310.398336979
0.0125 -0.0165 310.322956812
0.0125 -0.0155 309.576558256
0.0125 -0.0145 307.786601942
0.0125 -0.0135 305.67512041
0.0125 -0.0125 302.543329518
0.0125 -0.0115 299.369403649
0.0125 -0.0105 296.723225181
0.0125 -0.0095 295.556912792
0.0125 -0.0085 294.733378111
0.0125 -0.0075 294.271850537
0.0125 -0.0065 295.346816561
0.0125 -0.0055 296.457334046
0.0125 -0.0045 298.914715785
0.0125 -0.0035 303.513005529
0.0125 -0.0025 308.111295273
0.0125 -0.0015 311.979350741
0.0125 -0.0005 315.063997602
0.0125 0.0005 318.148644463
0.0125 0.0015 319.59656981
0.0125 0.0025 320.907149666
0.0125 0.0035 322.229305877
0.0125 0.0045 325.407075878
0.0125 0.0055 330.194737745
0.0125 0.0065 334.918996201
0.0125 0.0075 341.310360958
0.0125 0.0085 348.899507281
0.0125 0.0095 356.35237953
0.0125 0.0105 361.569376005
0.0125 0.0115 365.682516447
0.0125 0.0125 369.864744765
0.0125 0.0135 371.467861629
0.0125 0.0145 371.313115323
0.0125 0.0155 371.137069953
0.0125 0.0165 370.319247046
0.0125 0.0175 369.11258078
0.0125 0.0185 367.989624233
0.0125 0.0195 366.35769227
0.0125 0.0205 365.188131862
0.0125 0.0215 364.234759897
0.0125 0.0225 363.272357018
0.0125 0.0235 363.34620146
0.0125 0.0245 363.408063461
0.0125 0.0255 364.979668413
0.0125 0.0265 367.515945629
0.0125 0.0275 370.449091369
0.0125 0.0285 374.837395833
0.0125 0.0295 379.634396477
0.0125 0.0305 382.194898913
0.0125 0.0315 384.436500973
0.0135 -0.0315 362.683588405
0.0135 -0.0305 360.548382656
0.0135 -0.0295 356.968476195
0.0135 -0.0285 347.475219805
0.0135 -0.0275 338.199801819
0.0135 -0.0265 329.833525496
0.0135 -0.0255 321.862591074
0.0135 -0.0245 316.599478724
0.0135 -0.0235 314.325150207
0.0135 -0.0225 311.87875251
0.0135 -0.0215 311.048672897
0.0135 -0.0205 310.575127624
0.0135 -0.0195 310.352728238
0.0135 -0.0185 310.332819015
0.0135 -0.0175 310.294564638
0.0135 -0.0165 309.963685213
0.0135 -0.0155 309.443527254
0.0135 -0.0145 308.302458017
0.0135 -0.0135 305.446118436
0.0135 -0.0125 302.339961346
0.0135 -0.0115 299.235039403
0.0135 -0.0105 297.255592705
0.0135 -0.0095 295.485342645
0.0135 -0.0085 294.767047644
0.0135 -0.0075 294.325691355
0.0135 -0.0065 295.232090434
0.0135 -0.0055 296.644157718
0.0135 -0.0045 298.641963806
0.0135 -0.0035 302.896248526
0.0135 -0.0025 307.703705557
0.0135 -0.0015 311.801801807
0.0135 -0.0005 315.156252368
0.0135 0.0005 317.70973116
0.0135 0.0015 318.799015362
0.0135 0.0025 320.038731873
0.0135 0.0035 321.476408851
0.0135 0.0045 322.997614992
0.0135 0.0055 327.408951502
0.0135 0.0065 331.916399833
0.0135 0.0075 336.371677192
0.0135 0.0085 343.960823514
0.0135 0.0095 351.097740927
0.0135 0.0105 358.091621762
0.0135 0.0115 362.204762205
0.0135 0.0125 366.495509028
0.0135 0.0135 370.787253105
0.0135 0.0145 370.64606415
0.0135 0.0155 370.457665216
0.0135 0.0165 370.257297664
0.0135 0.0175 369.09753707
0.0135 0.0185 367.974580524
0.0135 0.0195 366.852980541
0.0135 0.0205 365.884362941
0.0135 0.0215 364.916541511
0.0135 0.0225 363.980800242
0.0135 0.0235 364.054644684
0.0135 0.0245 364.138496565
0.0135 0.0255 365.696845334
0.0135 0.0265 368.202822687
0.0135 0.0275 371.145270459
0.0135 0.0285 375.533574923
0.0135 0.0295 379.81186915
0.0135 0.0305 382.157878904
0.0135 0.0315 384.401678736
0.0145 -0.0315 359.952036044
0.0145 -0.0305 356.829431458
0.0145 -0.0295 353.043794086
0.0145 -0.0285 343.412586094
0.0145 -0.0275 333.781378102
0.0145 -0.0265 326.393874944
0.0145 -0.0255 320.101802795
0.0145 -0.0245 315.04339814
0.0145 -0.0235 313.16370427
0.0145 -0.0225 311.166623504
0.0145 -0.0215 310.622318667
0.0145 -0.0205 310.298902066
0.0145 -0.0195 310.203606145
0.0145 -0.0185 310.198433853
0.0145 -0.0175 310.171388833
0.0145 -0.0165 309.765746788
0.0145 -0.0155 309.360104743
0.0145 -0.0145 308.347240732
0.0145 -0.0135 305.341960184
0.0145 -0.0125 302.228201226
0.0145 -0.0115 299.522322967
0.0145 -0.0105 297.554228072
0.0145 -0.0095 295.599576506
0.0145 -0.0085 294.93538341
0.0145 -0.0075 294.513665018
0.0145 -0.0065 295.211871781
0.0145 -0.0055 296.567674042
0.0145 -0.0045 298.702800353
0.0145 -0.0035 302.50014615
0.0145 -0.0025 307.362694081
0.0145 -0.0015 311.360853977
0.0145 -0.0005 315.058403909
0.0145 0.0005 317.010354307
0.0145 0.0015 318.140116036
0.0145 0.0025 319.179739206
0.0145 0.0035 320.703655747
0.0145 0.0045 322.227572288
0.0145 0.0055 324.495255356
0.0145 0.0065 328.919119888
0.0145 0.0075 333.342984419
0.0145 0.0085 338.719180122
0.0145 0.0095 345.767401774
0.0145 0.0105 352.815623427
0.0145 0.0115 358.432305881
0.0145 0.0125 362.580339379
0.0145 0.0135 366.728372878
0.0145 0.0145 369.696355059
0.0145 0.0155 369.435216167
0.0145 0.0165 369.229866177
0.0145 0.0175 369.144447054
0.0145 0.0185 368.032857578
0.0145 0.0195 367.224085194
0.0145 0.0205 366.445669816
0.0145 0.0215 365.562795077
0.0145 0.0225 364.689243466
0.0145 0.0235 364.861166224
0.0145 0.0245 365.080327594
0.0145 0.0255 366.626520706
0.0145 0.0265 368.980103525
0.0145 0.0275 371.823170566
0.0145 0.0285 375.984373655
0.0145 0.0295 380.145576744
0.0145 0.0305 382.439745757
0.0145 0.0315 384.461227767
0.0155 -0.0315 356.26465053
0.0155 -0.0305 352.934972361
0.0155 -0.0295 349.119111977
0.0155 -0.0285 339.632763718
0.0155 -0.0275 330.499633158
0.0155 -0.0265 323.988211877
0.0155 -0.0255 318.486234249
0.0155 -0.0245 313.487317556
0.0155 -0.0235 311.913746427
0.0155 -0.0225 310.737917304
0.0155 -0.0215 310.442517821
0.0155 -0.0205 310.150873027
0.0155 -0.0195 310.027167523
0.0155 -0.0185 310.05320394
0.0155 -0.0175 310.101926585
0.0155 -0.0165 310.18122681
0.0155 -0.0155 309.821977533
0.0155 -0.0145 307.996526329
0.0155 -0.0135 305.403323314
0.0155 -0.0125 302.359516147
0.0155 -0.0115 299.716083298
0.0155 -0.0105 297.443544747
0.0155 -0.0095 295.93974757
0.0155 -0.0085 294.88873931
0.0155 -0.0075 294.766615853
0.0155 -0.0065 295.268215073
0.0155 -0.0055 296.355479021
0.0155 -0.0045 298.837574314
0.0155 -0.0035 301.855099345
0.0155 -0.0025 306.79145369
0.0155 -0.0015 311.230180404
0.0155 -0.0005 314.842512519
0.0155 0.0005 317.024877241
0.0155 0.0015 318.15463897
0.0155 0.0025 318.854935153
0.0155 0.0035 319.774590125
0.0155 0.0045 321.298506667
0.0155 0.0055 322.520429393
0.0155 0.0065 325.986098922
0.0155 0.0075 330.311237868
0.0155 0.0085 333.384173981
0.0155 0.0095 339.791124893
0.0155 0.0105 346.6196716
0.0155 0.0115 352.524564741
0.0155 0.0125 356.978426041
0.0155 0.0135 361.510683041
0.0155 0.0145 366.746497851
0.0155 0.0155 368.077633958
0.0155 0.0165 368.16294445
0.0155 0.0175 368.524143552
0.0155 0.0185 368.265014153
0.0155 0.0195 367.672914397
0.0155 0.0205 366.944724059
0.0155 0.0215 366.129132916
0.0155 0.0225 365.617620362
0.0155 0.0235 365.810863527
0.0155 0.0245 366.022158624
0.0155 0.0255 367.57626079
0.0155 0.0265 369.899899918
0.0155 0.0275 372.575055276
0.0155 0.0285 376.408769212
0.0155 0.0295 380.479284337
0.0155 0.0305 382.770833682
0.0155 0.0315 384.723044361
0.0165 -0.0315 352.696382861
0.0165 -0.0305 349.366704691
0.0165 -0.0295 345.371632311
0.0165 -0.0285 336.53185309
0.0165 -0.0275 327.398722531
0.0165 -0.0265 320.922478325
0.0165 -0.0255 315.732917854
0.0165 -0.0245 312.685293819
0.0165 -0.0235 311.634053736
0.0165 -0.0225 310.458224613
0.0165 -0.0215 310.159620437
0.0165 -0.0205 309.936162375
0.0165 -0.0195 309.903455659
0.0165 -0.0185 309.949227252
0.0165 -0.0175 309.997621271
0.0165 -0.0165 310.076921497
0.0165 -0.0155 310.086820696
0.0165 -0.0145 307.724239841
0.0165 -0.0135 305.253666935