% Model:              SIMBench260525.mph
% Version:            COMSOL 6.2.0.339
% Date:               May 27 2026, 17:51
% Dimension:          2
% Nodes:              4096
% Expressions:        1
% Description:        温度
% Length unit:        m
% x                       y                        T (K)
5.0E-4                    -0.0315                  443.27513586436106
5.0E-4                    -0.0305                  442.6676784021771
5.0E-4                    -0.0295                  442.04877208719483
5.0E-4                    -0.0285                  441.01921063571604
5.0E-4                    -0.0275                  439.78272006978733
5.0E-4                    -0.0265                  438.4287462511728
5.0E-4                    -0.0255                  436.0039676483424
5.0E-4                    -0.0245                  433.1535608420356
5.0E-4                    -0.0235                  429.7822679506832
5.0E-4                    -0.0225                  424.21960237757503
5.0E-4                    -0.0215                  418.2192264020713
5.0E-4                    -0.0205                  410.7357297831959
5.0E-4                    -0.0195                  401.4429484140972
5.0E-4                    -0.0185                  392.1090839507429
5.0E-4                    -0.0175                  381.8246579028498
5.0E-4                    -0.0165                  372.7697192213767
5.0E-4                    -0.0155                  363.71478053990364
5.0E-4                    -0.0145                  357.24597621891667
5.0E-4                    -0.0135                  352.152909604589
5.0E-4                    -0.0125                  347.19328885127186
5.0E-4                    -0.0115                  345.14946939328166
5.0E-4                    -0.0105                  343.0045409300159
5.0E-4                    -0.0095                  341.1868967329793
5.0E-4                    -0.0085                  340.26416933924236
5.0E-4                    -0.0075                  339.1615418899539
5.0E-4                    -0.0065                  338.3629755787184
5.0E-4                    -0.0055                  337.6984871405763
5.0E-4                    -0.0045                  336.94356244137623
5.0E-4                    -0.0035                  336.51437937299573
5.0E-4                    -0.0025                  335.9360753048835
5.0E-4                    -0.0015                  335.3433755502072
5.0E-4                    -5.0E-4                  335.06333798175973
5.0E-4                    5.0E-4                   334.64272807813796
5.0E-4                    0.0015                   334.22211817451625
5.0E-4                    0.0025                   333.9030322552712
5.0E-4                    0.0035                   333.475766799491
5.0E-4                    0.0045                   333.0244825620473
5.0E-4                    0.0055                   332.34891807908855
5.0E-4                    0.0065                   331.6803987678019
5.0E-4                    0.0075                   330.8389872936553
5.0E-4                    0.0085                   329.08344332277943
5.0E-4                    0.0095                   327.1064504383481
5.0E-4                    0.0105                   324.77373136237077
5.0E-4                    0.0115                   317.8409860003695
5.0E-4                    0.0125                   310.15598742392564
5.0E-4                    0.0135                   304.2986512361805
5.0E-4                    0.0145                   302.28241331223626
5.0E-4                    0.0155                   300.2661753882921
5.0E-4                    0.0165                   296.6594115848753
5.0E-4                    0.0175                   295.02976065950554
5.0E-4                    0.0185                   293.5166038322335
5.0E-4                    0.0195                   293.1505531965852
5.0E-4                    0.0205                   293.13336354371415
5.0E-4                    0.0215                   293.13786857740536
5.0E-4                    0.0225                   293.14592840121134
5.0E-4                    0.0235                   293.15159699197363
5.0E-4                    0.0245                   293.1550796837737
5.0E-4                    0.0255                   293.15489511628726
5.0E-4                    0.0265                   293.15498676519167
5.0E-4                    0.0275                   293.15601315745437
5.0E-4                    0.0285                   293.1564853218608
5.0E-4                    0.0295                   293.1612673213881
5.0E-4                    0.0305                   293.1695842109375
5.0E-4                    0.0315                   293.1779248592683
0.0015                    -0.0315                  441.1788896508772
0.0015                    -0.0305                  441.24818788516905
0.0015                    -0.0295                  440.52410787179565
0.0015                    -0.0285                  439.54914310611815
0.0015                    -0.0275                  438.4118210012259
0.0015                    -0.0265                  436.63218013415184
0.0015                    -0.0255                  434.7473077217235
0.0015                    -0.0245                  431.92427042788546
0.0015                    -0.0235                  427.60036605928656
0.0015                    -0.0225                  423.0092529021956
0.0015                    -0.0215                  416.64828053132925
0.0015                    -0.0205                  407.7516956353759
0.0015                    -0.0195                  398.72113674724756
0.0015                    -0.0185                  388.897188547952
0.0015                    -0.0175                  377.9591835180929
0.0015                    -0.0165                  367.9334881993052
0.0015                    -0.0155                  360.11957464942077
0.0015                    -0.0145                  353.62682188852193
0.0015                    -0.0135                  348.06097264020946
0.0015                    -0.0125                  345.02400074526054
0.0015                    -0.0115                  343.05847538847763
0.0015                    -0.0105                  340.942492719359
0.0015                    -0.0095                  340.04530018548337
0.0015                    -0.0085                  339.4004252452014
0.0015                    -0.0075                  338.2977977959131
0.0015                    -0.0065                  337.9704301948198
0.0015                    -0.0055                  337.5623785359177
0.0015                    -0.0045                  336.9058671508342
0.0015                    -0.0035                  336.72555002208844
0.0015                    -0.0025                  336.3943575408325
0.0015                    -0.0015                  335.9669797783261
0.0015                    -5.0E-4                  335.8540841036598
0.0015                    5.0E-4                   335.5744907003199
0.0015                    0.0015                   335.24342196730964
0.0015                    0.0025                   334.99540340890167
0.0015                    0.0035                   334.61879895485737
0.0015                    0.0045                   334.0144091506287
0.0015                    0.0055                   333.33197854359355
0.0015                    0.0065                   332.6619631936416
0.0015                    0.0075                   331.43720491632075
0.0015                    0.0085                   330.08515221629557
0.0015                    0.0095                   328.0677480103903
0.0015                    0.0105                   325.2973440666958
0.0015                    0.0115                   321.31457414321187
0.0015                    0.0125                   314.30201923084417
0.0015                    0.0135                   309.3850697333757
0.0015                    0.0145                   305.7433046338
0.0015                    0.0155                   302.448167894991
0.0015                    0.0165                   297.5884182951823
0.0015                    0.0175                   294.9230132235495
0.0015                    0.0185                   293.91604198283886
0.0015                    0.0195                   293.11655908210287
0.0015                    0.0205                   293.10382802519496
0.0015                    0.0215                   293.1321074701168
0.0015                    0.0225                   293.1524867113965
0.0015                    0.0235                   293.1575071276319
0.0015                    0.0245                   293.16170095405107
0.0015                    0.0255                   293.1629347867967
0.0015                    0.0265                   293.1642051997166
0.0015                    0.0275                   293.1658996259317
0.0015                    0.0285                   293.16791548264814
0.0015                    0.0295                   293.176951757712
0.0015                    0.0305                   293.1857494665113
0.0015                    0.0315                   293.2246289881667
0.0025                    -0.0315                  439.0826434373935
0.0025                    -0.0305                  438.36670399466385
0.0025                    -0.0295                  437.4743435633948
0.0025                    -0.0285                  436.72487825125324
0.0025                    -0.0275                  435.5943408066291
0.0025                    -0.0265                  433.9626735588734
0.0025                    -0.0255                  432.3284581759059
0.0025                    -0.0245                  429.25284136446373
0.0025                    -0.0235                  424.9053502251405
0.0025                    -0.0225                  420.5578590858173
0.0025                    -0.0215                  412.9574850093196
0.0025                    -0.0205                  404.0368647682037
0.0025                    -0.0195                  395.11624452708776
0.0025                    -0.0185                  384.35044341627076
0.0025                    -0.0175                  373.4108311541678
0.0025                    -0.0165                  362.995364616187
0.0025                    -0.0155                  356.58494505909596
0.0025                    -0.0145                  350.0955715447279
0.0025                    -0.0135                  344.988149995815
0.0025                    -0.0125                  343.02007692601205
0.0025                    -0.0115                  341.052003856209
0.0025                    -0.0105                  339.7602015025724
0.0025                    -0.0095                  339.1191588555175
0.0025                    -0.0085                  338.4781162084627
0.0025                    -0.0075                  338.13367663864466
0.0025                    -0.0065                  337.80455826386856
0.0025                    -0.0055                  337.47543988909234
0.0025                    -0.0045                  337.4037171738554
0.0025                    -0.0035                  337.2211074062665
0.0025                    -0.0025                  337.0384976386776
0.0025                    -0.0015                  337.0462937482832
0.0025                    -5.0E-4                  336.93173065959564
0.0025                    5.0E-4                   336.8281458731332
0.0025                    0.0015                   336.5929057871782
0.0025                    0.0025                   336.34460478463717
0.0025                    0.0035                   335.8828514643375
0.0025                    0.0045                   335.20154632754196
0.0025                    0.0055                   334.5202411907464
0.0025                    0.0065                   333.351518326748
0.0025                    0.0075                   332.04457963232255
0.0025                    0.0085                   330.737640937897
0.0025                    0.0095                   328.40595563239503
0.0025                    0.0105                   325.62893485696407
0.0025                    0.0115                   322.85191408153304
0.0025                    0.0125                   318.76660516696313
0.0025                    0.0135                   313.82446745127555
0.0025                    0.0145                   308.7766661297943
0.0025                    0.0155                   303.70233048290686
0.0025                    0.0165                   298.8272898750935
0.0025                    0.0175                   294.9977500975406
0.0025                    0.0185                   294.1864070280592
0.0025                    0.0195                   293.3750639585777
0.0025                    0.0205                   293.09865866127234
0.0025                    0.0215                   293.1269452760886
0.0025                    0.0225                   293.15517224123454
0.0025                    0.0235                   293.163820089219
0.0025                    0.0245                   293.16802573831535
0.0025                    0.0255                   293.17158996789425
0.0025                    0.0265                   293.1732571654469
0.0025                    0.0275                   293.1749243629995
0.0025                    0.0285                   293.18250916087635
0.0025                    0.0295                   293.1912471149217
0.0025                    0.0305                   293.22256382976417
0.0025                    0.0315                   293.27133311706524
0.0035                    -0.0315                  435.1496095722043
0.0035                    -0.0305                  434.29742291707856
0.0035                    -0.0295                  433.3447349996865
0.0035                    -0.0285                  432.38628730007235
0.0035                    -0.0275                  430.92725427125384
0.0035                    -0.0265                  429.39062699930355
0.0035                    -0.0255                  427.3280194103991
0.0035                    -0.0245                  423.83769872383846
0.0035                    -0.0235                  419.6854028276138
0.0035                    -0.0225                  413.9660340926843
0.0035                    -0.0215                  405.6250957755807
0.0035                    -0.0205                  396.7460356034459
0.0035                    -0.0195                  386.78484868261455
0.0035                    -0.0185                  375.89765249579125
0.0035                    -0.0175                  364.95804023368817
0.0035                    -0.0165                  357.7312674768336
0.0035                    -0.0155                  351.73496972458616
0.0035                    -0.0145                  345.2455962102181
0.0035                    -0.0135                  343.4258457344405
0.0035                    -0.0125                  341.83360139568026
0.0035                    -0.0115                  339.9633525394093
0.0035                    -0.0105                  339.7890932644195
0.0035                    -0.0095                  339.31445882625866
0.0035                    -0.0085                  338.8641259933299
0.0035                    -0.0075                  339.09570295264086
0.0035                    -0.0065                  338.8689839937742
0.0035                    -0.0055                  338.8939559398466
0.0035                    -0.0045                  339.487375414752
0.0035                    -0.0035                  339.3111119218073
0.0035                    -0.0025                  339.5509324179853
0.0035                    -0.0015                  340.0173122718876
0.0035                    -5.0E-4                  339.90274918320006
0.0035                    5.0E-4                   339.85436472214246
0.0035                    0.0015                   339.7543343835365
0.0035                    0.0025                   339.5060333809955
0.0035                    0.0035                   338.43545975125426
0.0035                    0.0045                   337.5195283889966
0.0035                    0.0055                   336.7156625911516
0.0035                    0.0065                   334.34121847459426
0.0035                    0.0075                   332.70258287322224
0.0035                    0.0085                   330.9347386342504
0.0035                    0.0095                   327.81530137610457
0.0035                    0.0105                   324.99227290036976
0.0035                    0.0115                   322.428722236425
0.0035                    0.0125                   319.95860230411165
0.0035                    0.0135                   315.0164645884241
0.0035                    0.0145                   309.1558884137484
0.0035                    0.0155                   303.3048399507469
0.0035                    0.0165                   298.4377597200585
0.0035                    0.0175                   295.63147130369083
0.0035                    0.0185                   293.9801338860213
0.0035                    0.0195                   293.35948290329543
0.0035                    0.0205                   293.11449925878924
0.0035                    0.0215                   293.1239031243886
0.0035                    0.0225                   293.1515568473861
0.0035                    0.0235                   293.1724461401153
0.0035                    0.0245                   293.17665178921175
0.0035                    0.0255                   293.1796651412402
0.0035                    0.0265                   293.18190942059664
0.0035                    0.0275                   293.18647758428534
0.0035                    0.0285                   293.19555331967774
0.0035                    0.0295                   293.2044115269105
0.0035                    0.0305                   293.2453993235039
0.0035                    0.0315                   293.30223528404093
0.0045                    -0.0315                  430.62230151580883
0.0045                    -0.0305                  429.8910975337675
0.0045                    -0.0295                  429.1069300909708
0.0045                    -0.0285                  427.64208637623335
0.0045                    -0.0275                  426.2341669405351
0.0045                    -0.0265                  424.8011347070601
0.0045                    -0.0255                  421.5867642137779
0.0045                    -0.0245                  418.0964435272172
0.0045                    -0.0235                  414.4654554300871
0.0045                    -0.0225                  406.32041492631964
0.0045                    -0.0215                  397.9794766092161
0.0045                    -0.0205                  389.1777381253715
0.0045                    -0.0195                  378.2968636043611
0.0045                    -0.0185                  367.4159890833507
0.0045                    -0.0175                  358.2628467164
0.0045                    -0.0165                  352.46717033748007
0.0045                    -0.0155                  346.67149395856006
0.0045                    -0.0145                  343.0797939879401
0.0045                    -0.0135                  341.81789406363174
0.0045                    -0.0125                  340.5559941393234
0.0045                    -0.0115                  339.8797743158819
0.0045                    -0.0105                  339.705515040892
0.0045                    -0.0095                  339.5097587969998
0.0045                    -0.0085                  339.5929695922404
0.0045                    -0.0075                  339.8245465515514
0.0045                    -0.0065                  339.9334097236798
0.0045                    -0.0055                  340.5189801057053
0.0045                    -0.0045                  341.1123995806107
0.0045                    -0.0035                  341.5209252449876
0.0045                    -0.0025                  342.10380042788904
0.0045                    -0.0015                  342.6866756107905
0.0045                    -5.0E-4                  342.9035452361202
0.0045                    5.0E-4                   342.88058357115176
0.0045                    0.0015                   342.85762190618334
0.0045                    0.0025                   342.21119408579386
0.0045                    0.0035                   341.0448588806488
0.0045                    0.0045                   339.8785236755037
0.0045                    0.0055                   338.0162486599242
0.0045                    0.0065                   335.6418045433669
0.0045                    0.0075                   333.36058611412193
0.0045                    0.0085                   330.50339264713
0.0045                    0.0095                   327.38395538898425
0.0045                    0.0105                   324.3889382771871
0.0045                    0.0115                   322.0722170317291
0.0045                    0.0125                   319.7554957862711
0.0045                    0.0135                   315.7820694676816
0.0045                    0.0145                   309.53511069770263
0.0045                    0.0155                   303.28815192772373
0.0045                    0.0165                   299.3331401846534
0.0045                    0.0175                   296.5268517682858
0.0045                    0.0185                   293.77386074398333
0.0045                    0.0195                   293.5033807938154
0.0045                    0.0205                   293.2583971493093
0.0045                    0.0215                   293.12057843744344
0.0045                    0.0225                   293.14794145353767
0.0045                    0.0235                   293.1753044696319
0.0045                    0.0245                   293.18457039100815
0.0045                    0.0255                   293.1875734007057
0.0045                    0.0265                   293.19056167574644
0.0045                    0.0275                   293.19940311661503
0.0045                    0.0285                   293.20842793021643
0.0045                    0.0295                   293.2173829330223
0.0045                    0.0305                   293.27958523556725
0.0045                    0.0315                   293.3427284382308
0.0055                    -0.0315                  426.09499345941333
0.0055                    -0.0305                  425.0984642779746
0.0055                    -0.0295                  424.0482359146681
0.0055                    -0.0285                  422.0774078316921
0.0055                    -0.0275                  420.6470697234098
0.0055                    -0.0265                  418.3646075066457
0.0055                    -0.0255                  415.0307511513445
0.0055                    -0.0245                  411.5847036401698
0.0055                    -0.0235                  406.09938375903755
0.0055                    -0.0225                  398.2034085437246
0.0055                    -0.0215                  389.85600367102086
0.0055                    -0.0205                  380.8030103731679
0.0055                    -0.0195                  370.3889217069054
0.0055                    -0.0185                  359.5095127446961
0.0055                    -0.0175                  354.30648868168703
0.0055                    -0.0165                  348.58648632718973
0.0055                    -0.0155                  343.44599847837225
0.0055                    -0.0145                  342.51068487344173
0.0055                    -0.0135                  341.2403599165416
0.0055                    -0.0125                  340.3903178323253
0.0055                    -0.0115                  340.4710483115397
0.0055                    -0.0105                  340.2932372300986
0.0055                    -0.0095                  340.58682287473727
0.0055                    -0.0085                  341.1742289780217
0.0055                    -0.0075                  341.4022162492813
0.0055                    -0.0065                  342.3150991897822
0.0055                    -0.0055                  343.1989480227613
0.0055                    -0.0045                  343.7888445652326
0.0055                    -0.0035                  344.77212641740954
0.0055                    -0.0025                  345.46129304705175
0.0055                    -0.0015                  346.0422182543296
0.0055                    -5.0E-4                  346.16078796376314
0.0055                    5.0E-4                   346.14102380513174
0.0055                    0.0015                   345.97297602511406
0.0055                    0.0025                   344.5345895597422
0.0055                    0.0035                   343.3679484289663
0.0055                    0.0045                   341.65883272377584
0.0055                    0.0055                   338.75164042003
0.0055                    0.0065                   336.37503580159375
0.0055                    0.0075                   333.1015526002982
0.0055                    0.0085                   329.34446962747484
0.0055                    0.0095                   326.2146814653728
0.0055                    0.0105                   323.30545692030694
0.0055                    0.0115                   320.81710967899517
0.0055                    0.0125                   318.484020420502
0.0055                    0.0135                   315.30626470218346
0.0055                    0.0145                   309.40699946081617
0.0055                    0.0155                   303.4561430372146
0.0055                    0.0165                   298.8010261408773
0.0055                    0.0175                   295.9847891766487
0.0055                    0.0185                   294.1401999624671
0.0055                    0.0195                   293.4404251742412
0.0055                    0.0205                   293.19662218793354
0.0055                    0.0215                   293.1356081506524
0.0055                    0.0225                   293.15302718741293
0.0055                    0.0235                   293.17808257557385
0.0055                    0.0245                   293.1932245443916
0.0055                    0.0255                   293.19626122750697
0.0055                    0.0265                   293.20045656795713
0.0055                    0.0275                   293.2073657315126
0.0055                    0.0285                   293.21632073431846
0.0055                    0.0295                   293.23719846484005
0.0055                    0.0305                   293.30759948121613
0.0055                    0.0315                   293.3832215924206
0.0065                    -0.0315                  421.3164642057019
0.0065                    -0.0305                  420.0771142307356
0.0065                    -0.0295                  418.95068945417034
0.0065                    -0.0285                  416.9798613711944
0.0065                    -0.0275                  414.90738301778856
0.0065                    -0.0265                  411.64605977209703
0.0065                    -0.0255                  408.38473652640556
0.0065                    -0.0245                  404.65871933926076
0.0065                    -0.0235                  397.27580317419915
0.0065                    -0.0225                  389.89288700913767
0.0065                    -0.0215                  381.32718042532935
0.0065                    -0.0205                  372.02557159488913
0.0065                    -0.0195                  362.57557589864683
0.0065                    -0.0185                  355.0780982030197
0.0065                    -0.0175                  350.1357655146297
0.0065                    -0.0165                  344.93454303252224
0.0065                    -0.0155                  342.8406988708931
0.0065                    -0.0145                  341.94078598885403
0.0065                    -0.0135                  340.85604880430213
0.0065                    -0.0125                  340.9071648090978
0.0065                    -0.0115                  341.0861983144281
0.0065                    -0.0105                  341.0880738753941
0.0065                    -0.0095                  341.9683035544796
0.0065                    -0.0085                  342.84853323356504
0.0065                    -0.0075                  343.41722103024824
0.0065                    -0.0065                  344.7814979460166
0.0065                    -0.0055                  346.12877027665354
0.0065                    -0.0045                  346.91020986345745
0.0065                    -0.0035                  348.0150759639255
0.0065                    -0.0025                  349.0182129130256
0.0065                    -0.0015                  349.3333601811445
0.0065                    -5.0E-4                  349.4168388975024
0.0065                    5.0E-4                   349.461050201546
0.0065                    0.0015                   348.41340926659154
0.0065                    0.0025                   346.9301282554806
0.0065                    0.0035                   345.61832035819555
0.0065                    0.0045                   342.7189632553241
0.0065                    0.0055                   339.56859676499744
0.0065                    0.0065                   336.8643695232011
0.0065                    0.0075                   332.5149468491866
0.0065                    0.0085                   328.1655241751721
0.0065                    0.0095                   324.98263661285483
0.0065                    0.0105                   322.1813124079729
0.0065                    0.0115                   319.41332152904783