% Model:              SIMBench260525.mph
% Version:            COMSOL 6.2.0.339
% Date:               May 27 2026, 17:38
% Dimension:          2
% Nodes:              4096
% Expressions:        1
% Description:        温度
% Length unit:        m
% x                       y                        T (K)
5.0E-4                    -0.0315                  385.43380703583273
5.0E-4                    -0.0305                  383.73494467237174
5.0E-4                    -0.0295                  382.0225165725012
5.0E-4                    -0.0285                  378.58399161929174
5.0E-4                    -0.0275                  374.6115788806285
5.0E-4                    -0.0265                  370.6391661419652
5.0E-4                    -0.0255                  366.0531301974203
5.0E-4                    -0.0245                  361.97045288610497
5.0E-4                    -0.0235                  357.9422144765585
5.0E-4                    -0.0225                  355.04516455183057
5.0E-4                    -0.0215                  352.4776800214561
5.0E-4                    -0.0205                  350.08226979586453
5.0E-4                    -0.0195                  348.72052505658735
5.0E-4                    -0.0185                  347.2331331385425
5.0E-4                    -0.0175                  345.93767371671345
5.0E-4                    -0.0165                  345.024703383953
5.0E-4                    -0.0155                  343.8481989722163
5.0E-4                    -0.0145                  342.936409196123
5.0E-4                    -0.0135                  342.1288787053306
5.0E-4                    -0.0125                  341.01832520799593
5.0E-4                    -0.0115                  340.24547185657667
5.0E-4                    -0.0105                  339.4266616787928
5.0E-4                    -0.0095                  338.3674292699791
5.0E-4                    -0.0085                  337.5813351042155
5.0E-4                    -0.0075                  336.4740265134835
5.0E-4                    -0.0065                  335.2065311667402
5.0E-4                    -0.0055                  334.0268918444456
5.0E-4                    -0.0045                  331.62351904726097
5.0E-4                    -0.0035                  329.05362919450397
5.0E-4                    -0.0025                  326.52546711104577
5.0E-4                    -0.0015                  317.29388707622905
5.0E-4                    -5.0E-4                  307.8351604393107
5.0E-4                    5.0E-4                   299.11799715876316
5.0E-4                    0.0015                   297.88744472400356
5.0E-4                    0.0025                   296.65689228924396
5.0E-4                    0.0035                   294.5495075409865
5.0E-4                    0.0045                   294.4650018017875
5.0E-4                    0.0055                   294.3804960625885
5.0E-4                    0.0065                   293.4993905634551
5.0E-4                    0.0075                   293.28970226475644
5.0E-4                    0.0085                   293.2793693364372
5.0E-4                    0.0095                   293.4670599578649
5.0E-4                    0.0105                   294.1121776424768
5.0E-4                    0.0115                   294.10648864536404
5.0E-4                    0.0125                   294.10079964825127
5.0E-4                    0.0135                   295.2516565119953
5.0E-4                    0.0145                   295.8063768926393
5.0E-4                    0.0155                   298.1536914447664
5.0E-4                    0.0165                   304.4701951033275
5.0E-4                    0.0175                   310.64310845048243
5.0E-4                    0.0185                   315.1820923573972
5.0E-4                    0.0195                   319.3629145736499
5.0E-4                    0.0205                   323.57532222513885
5.0E-4                    0.0215                   325.54076268250475
5.0E-4                    0.0225                   327.7526108117239
5.0E-4                    0.0235                   329.8519381958494
5.0E-4                    0.0245                   331.39696085046717
5.0E-4                    0.0255                   333.6415526686237
5.0E-4                    0.0265                   335.7300035641249
5.0E-4                    0.0275                   338.6450216583677
5.0E-4                    0.0285                   341.896077858436
5.0E-4                    0.0295                   345.15811663924455
5.0E-4                    0.0305                   347.0113007570814
5.0E-4                    0.0315                   348.8644848749182
0.0015                    -0.0315                  384.5640337274097
0.0015                    -0.0305                  383.3563369916022
0.0015                    -0.0295                  381.0356871486531
0.0015                    -0.0285                  377.2916754253781
0.0015                    -0.0275                  373.429149285632
0.0015                    -0.0265                  368.8841581101307
0.0015                    -0.0255                  364.02114981806363
0.0015                    -0.0245                  359.7049690128134
0.0015                    -0.0235                  356.2925738219697
0.0015                    -0.0225                  353.15140371024677
0.0015                    -0.0215                  350.47781619888656
0.0015                    -0.0205                  348.9393189512959
0.0015                    -0.0195                  347.70502177885226
0.0015                    -0.0185                  346.24413251858533
0.0015                    -0.0175                  345.54921280793036
0.0015                    -0.0165                  345.0007446711024
0.0015                    -0.0155                  343.84187477332983
0.0015                    -0.0145                  343.532610962343
0.0015                    -0.0135                  343.26310293807694
0.0015                    -0.0125                  342.15254944074235
0.0015                    -0.0115                  341.9816385401338
0.0015                    -0.0105                  341.71318288938943
0.0015                    -0.0095                  340.68845088675
0.0015                    -0.0085                  340.2669613653543
0.0015                    -0.0075                  339.67525840018703
0.0015                    -0.0065                  338.4299958794334
0.0015                    -0.0055                  337.3367982113365
0.0015                    -0.0045                  335.83441805785804
0.0015                    -0.0035                  333.2791046182375
0.0015                    -0.0025                  330.7811092470745
0.0015                    -0.0015                  325.75190848263696
0.0015                    -5.0E-4                  316.48048364899796
0.0015                    5.0E-4                   307.58484084098205
0.0015                    0.0015                   302.1321645493509
0.0015                    0.0025                   299.8991997047618
0.0015                    0.0035                   296.73005154593926
0.0015                    0.0045                   295.9863251808189
0.0015                    0.0055                   294.739516671636
0.0015                    0.0065                   293.7246307736661
0.0015                    0.0075                   293.34300868341865
0.0015                    0.0085                   293.3305467077575
0.0015                    0.0095                   293.63935636063286
0.0015                    0.0105                   294.5915343887618
0.0015                    0.0115                   295.26589976159323
0.0015                    0.0125                   296.02330949823056
0.0015                    0.0135                   297.6922487670313
0.0015                    0.0145                   298.4382656639469
0.0015                    0.0155                   304.37076855904024
0.0015                    0.0165                   310.9744528404136
0.0015                    0.0175                   316.6649949732511
0.0015                    0.0185                   319.8916302494706
0.0015                    0.0195                   323.516395407616
0.0015                    0.0205                   326.3653004231236
0.0015                    0.0215                   327.5146657353429
0.0015                    0.0225                   329.4127167797137
0.0015                    0.0235                   330.5876731024622
0.0015                    0.0245                   331.4492588456611
0.0015                    0.0255                   333.6713028519678
0.0015                    0.0265                   335.4700197140079
0.0015                    0.0275                   337.7129615965996
0.0015                    0.0285                   340.9726066671012
0.0015                    0.0295                   344.2836140932291
0.0015                    0.0305                   346.80014189790967
0.0015                    0.0315                   348.37366939358753
0.0025                    -0.0315                  383.6942604189867
0.0025                    -0.0305                  382.0232468124764
0.0025                    -0.0295                  379.4866734749707
0.0025                    -0.0285                  375.780891948892
0.0025                    -0.0275                  371.5440661585044
0.0025                    -0.0265                  366.6866472556973
0.0025                    -0.0255                  361.8838298494247
0.0025                    -0.0245                  357.7778665766879
0.0025                    -0.0235                  354.6373127356187
0.0025                    -0.0225                  351.4967588945495
0.0025                    -0.0215                  349.28697380137623
0.0025                    -0.0205                  348.0474040087685
0.0025                    -0.0195                  346.80783421616087
0.0025                    -0.0185                  346.1066007525641
0.0025                    -0.0175                  345.5493824558653
0.0025                    -0.0165                  344.9921641591666
0.0025                    -0.0155                  344.84699720351324
0.0025                    -0.0145                  344.61250961337566
0.0025                    -0.0135                  344.378022023238
0.0025                    -0.0125                  344.37432138141315
0.0025                    -0.0115                  344.20956435299536
0.0025                    -0.0105                  344.04480732457773
0.0025                    -0.0095                  343.77411222391044
0.0025                    -0.0085                  343.34885095192027
0.0025                    -0.0075                  342.92358967993016
0.0025                    -0.0065                  341.9031431909973
0.0025                    -0.0055                  340.80955348438624
0.0025                    -0.0045                  339.7159637777751
0.0025                    -0.0035                  337.2954513441201
0.0025                    -0.0025                  334.7656998909036
0.0025                    -0.0015                  332.23594843768717
0.0025                    -5.0E-4                  324.41274452303276
0.0025                    5.0E-4                   315.3504544045301
0.0025                    0.0015                   306.74174433223874
0.0025                    0.0025                   303.15743212397604
0.0025                    0.0035                   299.9887648344367
0.0025                    0.0045                   296.4981338535597
0.0025                    0.0055                   295.0328145366831
0.0025                    0.0065                   293.94987098387713
0.0025                    0.0075                   293.4960408009762
0.0025                    0.0085                   293.4738994275958
0.0025                    0.0095                   293.8116527634008
0.0025                    0.0105                   294.88440942633645
0.0025                    0.0115                   296.12887549861694
0.0025                    0.0125                   298.3576620294833
0.0025                    0.0135                   300.08304040115263
0.0025                    0.0145                   303.854381865567
0.0025                    0.0155                   310.51940874822185
0.0025                    0.0165                   317.18443563087675
0.0025                    0.0175                   321.12575378527316
0.0025                    0.0185                   324.3527863115178
0.0025                    0.0195                   327.5001310720569
0.0025                    0.0205                   328.80110536489553
0.0025                    0.0215                   329.9480685540682
0.0025                    0.0225                   330.8688983152686
0.0025                    0.0235                   331.6633232534425
0.0025                    0.0245                   332.45774819161636
0.0025                    0.0255                   333.5727766800378
0.0025                    0.0265                   335.23010534917194
0.0025                    0.0275                   337.008752725931
0.0025                    0.0285                   340.1161104355969
0.0025                    0.0295                   343.52697992765013
0.0025                    0.0305                   346.2823664782286
0.0025                    0.0315                   347.8693464679548
0.0035                    -0.0315                  381.93773453921256
0.0035                    -0.0305                  379.8718048536574
0.0035                    -0.0295                  377.77582952698265
0.0035                    -0.0285                  373.7996586579546
0.0035                    -0.0275                  368.62223945537926
0.0035                    -0.0265                  363.5431747508084
0.0035                    -0.0255                  358.84414257997224
0.0035                    -0.0245                  355.96882565823046
0.0035                    -0.0235                  352.9603586813075
0.0035                    -0.0225                  349.9786105670443
0.0035                    -0.0215                  349.4157556078247
0.0035                    -0.0205                  348.44363627212397
0.0035                    -0.0195                  347.4318831538639
0.0035                    -0.0185                  347.9252134691829
0.0035                    -0.0175                  347.70432086308404
0.0035                    -0.0165                  347.44806721473566
0.0035                    -0.0155                  348.49104270344856
0.0035                    -0.0145                  348.5696945791592
0.0035                    -0.0135                  348.6188959992102
0.0035                    -0.0125                  349.5332104038381
0.0035                    -0.0115                  349.55032891192684
0.0035                    -0.0105                  349.43926452658224
0.0035                    -0.0095                  349.44772416297417
0.0035                    -0.0085                  349.0623392674309
0.0035                    -0.0075                  348.16258195799855
0.0035                    -0.0065                  346.4877246388605
0.0035                    -0.0055                  345.3848107730126
0.0035                    -0.0045                  343.2346448720036
0.0035                    -0.0035                  339.870555775236
0.0035                    -0.0025                  337.3408043220196
0.0035                    -0.0015                  333.99093715685365
0.0035                    -5.0E-4                  329.12878190816747
0.0035                    5.0E-4                   320.0664917896648
0.0035                    0.0015                   312.776452548762
0.0035                    0.0025                   307.42196885403956
0.0035                    0.0035                   303.4886703995476
0.0035                    0.0045                   297.4266084753038
0.0035                    0.0055                   295.43591358118556
0.0035                    0.0065                   294.27887086488425
0.0035                    0.0075                   293.52332399801753
0.0035                    0.0085                   293.55714926078997
0.0035                    0.0095                   294.22657098272515
0.0035                    0.0105                   295.2590297677001
0.0035                    0.0115                   298.2929124490654
0.0035                    0.0125                   302.5834832080409
0.0035                    0.0135                   304.3088615797102
0.0035                    0.0145                   310.0537377718639
0.0035                    0.0155                   316.401797899772
0.0035                    0.0165                   321.70550701534955
0.0035                    0.0175                   324.58246685064427
0.0035                    0.0185                   327.8046723196039
0.0035                    0.0195                   330.27912541449086
0.0035                    0.0205                   332.11312186124076
0.0035                    0.0215                   333.2357180561982
0.0035                    0.0225                   333.6350453105269
0.0035                    0.0235                   334.30145143074935
0.0035                    0.0245                   334.6736703972799
0.0035                    0.0255                   334.83366077744796
0.0035                    0.0265                   336.49098944658215
0.0035                    0.0275                   337.573951807267
0.0035                    0.0285                   339.89599738695574
0.0035                    0.0295                   343.0340513684369
0.0035                    0.0305                   345.62557127643487
0.0035                    0.0315                   347.34517090812176
0.0045                    -0.0315                  380.4403363269472
0.0045                    -0.0305                  378.2008729711602
0.0045                    -0.0295                  375.949624934429
0.0045                    -0.0285                  370.95426126222986
0.0045                    -0.0275                  365.76111559648245
0.0045                    -0.0265                  360.5679699307351
0.0045                    -0.0255                  357.0141501581649
0.0045                    -0.0245                  354.13883323642324
0.0045                    -0.0235                  351.26351631468145
0.0045                    -0.0225                  349.96791794095986
0.0045                    -0.0215                  349.40506298174023
0.0045                    -0.0205                  348.8398685354794
0.0045                    -0.0195                  348.948813929371
0.0045                    -0.0185                  349.4421442446901
0.0045                    -0.0175                  349.85925927030274
0.0045                    -0.0165                  350.62782801466756
0.0045                    -0.0155                  351.6708035033804
0.0045                    -0.0145                  352.52687954494286
0.0045                    -0.0135                  353.3025305650553
0.0045                    -0.0125                  354.21684496968305
0.0045                    -0.0115                  354.8910934708583
0.0045                    -0.0105                  354.88908076161727
0.0045                    -0.0095                  354.89754039800926
0.0045                    -0.0085                  354.76609048758354
0.0045                    -0.0075                  353.09123316844557
0.0045                    -0.0065                  351.41637584930766
0.0045                    -0.0055                  349.7743637269558
0.0045                    -0.0045                  346.34639966402676
0.0045                    -0.0035                  342.9184356010977
0.0045                    -0.0025                  339.6000128149867
0.0045                    -0.0015                  335.72489264697606
0.0045                    -5.0E-4                  331.8497724789653
0.0045                    5.0E-4                   325.7903264532945
0.0045                    0.0015                   318.8111607652852
0.0045                    0.0025                   311.8319950772759
0.0045                    0.0035                   306.02482741050267
0.0045                    0.0045                   299.9627654862589
0.0045                    0.0055                   295.970415866329
0.0045                    0.0065                   294.88495010941676
0.0045                    0.0075                   293.7313842803148
0.0045                    0.0085                   293.9416398023421
0.0045                    0.0095                   294.79659414597603
0.0045                    0.0105                   295.69605195741497
0.0045                    0.0115                   300.69546816818587
0.0045                    0.0125                   305.69488437895694
0.0045                    0.0135                   310.7025804975203
0.0045                    0.0145                   316.4563474147172
0.0045                    0.0155                   322.2841870513222
0.0045                    0.0165                   325.35201542898596
0.0045                    0.0175                   328.2289752642806
0.0045                    0.0185                   330.91261384707406
0.0045                    0.0195                   333.05811975692484
0.0045                    0.0205                   335.2036256667757
0.0045                    0.0215                   336.07279726252466
0.0045                    0.0225                   336.4721245168534
0.0045                    0.0235                   336.8944083736415
0.0045                    0.0245                   336.6125249191628
0.0045                    0.0255                   336.3287518699024
0.0045                    0.0265                   337.1000669849774
0.0045                    0.0275                   338.03545172104157
0.0045                    0.0285                   340.45239096814237
0.0045                    0.0295                   343.0193014807685
0.0045                    0.0305                   345.20632649941683
0.0045                    0.0315                   347.18080876793897
0.0055                    -0.0315                  378.94293811468174
0.0055                    -0.0305                  376.6116898438116
0.0055                    -0.0295                  374.24685602086777
0.0055                    -0.0285                  368.84359912971394
0.0055                    -0.0275                  363.63525144638874
0.0055                    -0.0265                  359.18832848908914
0.0055                    -0.0255                  356.03757924366397
0.0055                    -0.0245                  353.09433271028945
0.0055                    -0.0235                  350.99582809599553
0.0055                    -0.0225                  350.73940445409517
0.0055                    -0.0215                  350.1755315750107
0.0055                    -0.0205                  350.451117083934
0.0055                    -0.0195                  351.4677179231928
0.0055                    -0.0185                  351.9547453519412
0.0055                    -0.0175                  353.1941635548416
0.0055                    -0.0165                  354.7718867055999
0.0055                    -0.0155                  355.80680633503096
0.0055                    -0.0145                  357.14822784448853
0.0055                    -0.0135                  358.3918589253079
0.0055                    -0.0125                  359.3038198880738
0.0055                    -0.0115                  359.7801272246001
0.0055                    -0.0105                  359.84415960991066
0.0055                    -0.0095                  359.8543959574344
0.0055                    -0.0085                  358.3787206353358
0.0055                    -0.0075                  356.5093453599045
0.0055                    -0.0065                  354.8368782040308
0.0055                    -0.0055                  350.885048909359
0.0055                    -0.0045                  347.1010237655446
0.0055                    -0.0035                  343.6259878309122
0.0055                    -0.0025                  338.1666805963396
0.0055                    -0.0015                  333.9906940447631
0.0055                    -5.0E-4                  330.01767204002357
0.0055                    5.0E-4                   325.9717564141349
0.0055                    0.0015                   318.95634291558
0.0055                    0.0025                   312.4037216419838
0.0055                    0.0035                   306.38222045006614
0.0055                    0.0045                   300.3412662702242
0.0055                    0.0055                   296.13787403068045
0.0055                    0.0065                   294.63247951379583
0.0055                    0.0075                   293.82743900588247
0.0055                    0.0085                   293.83520850361754
0.0055                    0.0095                   294.69016284725143
0.0055                    0.0105                   297.20047384367734
0.0055                    0.0115                   301.61834589534993
0.0055                    0.0125                   306.67512728981296
0.0055                    0.0135                   311.9908292965587
0.0055                    0.0145                   317.75062106001997
0.0055                    0.0155                   321.6388731115767
0.0055                    0.0165                   324.2408495232725
0.0055                    0.0175                   327.08124260028313
0.0055                    0.0185                   330.93085485700897
0.0055                    0.0195                   333.2787677197979
0.0055                    0.0205                   335.6558155059914
0.0055                    0.0215                   337.9716299205432
0.0055                    0.0225                   338.37844070177056
0.0055                    0.0235                   338.53515269044317
0.0055                    0.0245                   338.3738945022237
0.0055                    0.0255                   338.15033405833987
0.0055                    0.0265                   338.2232366715673
0.0055                    0.0275                   338.49695163481624
0.0055                    0.0285                   340.8938808401943
0.0055                    0.0295                   343.28793147702424
0.0055                    0.0305                   345.27700056212484
0.0055                    0.0315                   347.02496286294564
0.0065                    -0.0315                  377.377101768507
0.0065                    -0.0305                  374.93508871391487
0.0065                    -0.0295                  372.30678450586083
0.0065                    -0.0285                  366.90352761470706
0.0065                    -0.0275                  361.54112743843933
0.0065                    -0.0265                  358.3400584112776
0.0065                    -0.0255                  355.1389893841158
0.0065                    -0.0245                  352.12197602958315
0.0065                    -0.0235                  351.66038060470817
0.0065                    -0.0225                  351.54715001177277
0.0065                    -0.0215                  351.2839769948728
0.0065                    -0.0205                  352.6661648969688
0.0065                    -0.0195                  354.0483527990649
0.0065                    -0.0185                  354.91740712462126
0.0065                    -0.0175                  356.9656826759989
0.0065                    -0.0165                  359.0139582273766
0.0065                    -0.0155                  360.28605328519257
0.0065                    -0.0145                  361.91518900047674
0.0065                    -0.0135                  363.5443247157608
0.0065                    -0.0125                  364.3515178197816
0.0065                    -0.0115                  364.50141903080794
0.0065                    -0.0105                  364.65026460810316
0.0065                    -0.0095                  364.0330362307336
0.0065                    -0.0085                  361.7153067131803
0.0065                    -0.0075                  359.45588895158244
0.0065                    -0.0065                  356.6853966908009
0.0065                    -0.0055                  351.80371170849946
0.0065                    -0.0045                  347.18728848684714
0.0065                    -0.0035                  342.5918902367864
0.0065                    -0.0025                  336.8101727044346
0.0065                    -0.0015                  331.62742018849724
0.0065                    -5.0E-4                  327.8292936893904
0.0065                    5.0E-4                   324.1130148002576
0.0065                    0.0015                   318.49950036805365
0.0065                    0.0025                   312.49449651496275
0.0065                    0.0035                   306.48949266187185
0.0065                    0.0045                   301.41323111713854
0.0065                    0.0055                   297.4557852288573
0.0065                    0.0065                   294.38000891817495
0.0065                    0.0075                   294.1739138437099
0.0065                    0.0085                   294.082247941248
0.0065                    0.0095                   295.2142915486663
0.0065                    0.0105                   298.7222661865151
0.0065                    0.0115                   302.4083589967529