% Model:              SIMBench260525.mph
% Version:            COMSOL 6.2.0.339
% Date:               May 27 2026, 18:14
% Dimension:          2
% Nodes:              4096
% Expressions:        1
% Description:        温度
% Length unit:        m
% x                       y                        T (K)
5.0E-4                    -0.0315                  371.7392402467248
5.0E-4                    -0.0305                  369.96021197571963
5.0E-4                    -0.0295                  368.17344007838204
5.0E-4                    -0.0285                  364.7461344876587
5.0E-4                    -0.0275                  361.1122836757777
5.0E-4                    -0.0265                  357.4762850153016
5.0E-4                    -0.0255                  353.9581471792217
5.0E-4                    -0.0245                  350.98723740089673
5.0E-4                    -0.0235                  348.13465383603983
5.0E-4                    -0.0225                  346.4325443704554
5.0E-4                    -0.0215                  344.776788103631
5.0E-4                    -0.0205                  343.2966079541875
5.0E-4                    -0.0195                  342.3709518092681
5.0E-4                    -0.0185                  341.2618504076175
5.0E-4                    -0.0175                  340.3695251763835
5.0E-4                    -0.0165                  339.73876461692794
5.0E-4                    -0.0155                  338.9364762639219
5.0E-4                    -0.0145                  338.346373102312
5.0E-4                    -0.0135                  337.8273512980186
5.0E-4                    -0.0125                  337.2017751541167
5.0E-4                    -0.0115                  336.58655179932566
5.0E-4                    -0.0105                  335.8951035041359
5.0E-4                    -0.0095                  335.1856712311371
5.0E-4                    -0.0085                  334.0752832565086
5.0E-4                    -0.0075                  332.81032164188264
5.0E-4                    -0.0065                  331.56124887998567
5.0E-4                    -0.0055                  329.03826771964054
5.0E-4                    -0.0045                  321.6822025446529
5.0E-4                    -0.0035                  314.3261373696654
5.0E-4                    -0.0025                  308.82862491814853
5.0E-4                    -0.0015                  305.19522925904903
5.0E-4                    -5.0E-4                  301.56183359994947
5.0E-4                    5.0E-4                   297.48253397318285
5.0E-4                    0.0015                   295.49363809721325
5.0E-4                    0.0025                   293.63486125353825
5.0E-4                    0.0035                   293.1703892081699
5.0E-4                    0.0045                   293.14050511410596
5.0E-4                    0.0055                   293.1357200855628
5.0E-4                    0.0065                   293.1444039146096
5.0E-4                    0.0075                   293.15096376493256
5.0E-4                    0.0085                   293.15306635716183
5.0E-4                    0.0095                   293.14938581460393
5.0E-4                    0.0105                   293.14436924743063
5.0E-4                    0.0115                   293.1453371258877
5.0E-4                    0.0125                   293.1590987205767
5.0E-4                    0.0135                   293.38580968953676
5.0E-4                    0.0145                   294.34348964359157
5.0E-4                    0.0155                   295.36400269861355
5.0E-4                    0.0165                   297.69065145693014
5.0E-4                    0.0175                   299.8397947025551
5.0E-4                    0.0185                   302.15445568050393
5.0E-4                    0.0195                   306.8285953582629
5.0E-4                    0.0205                   312.524490558477
5.0E-4                    0.0215                   316.4336987398095
5.0E-4                    0.0225                   320.0627893624267
5.0E-4                    0.0235                   323.8758778822314
5.0E-4                    0.0245                   326.84505769831225
5.0E-4                    0.0255                   329.1581913455217
5.0E-4                    0.0265                   331.63251504596434
5.0E-4                    0.0275                   334.4770383831389
5.0E-4                    0.0285                   336.9148172897477
5.0E-4                    0.0295                   339.69475670290586
5.0E-4                    0.0305                   341.3521485400894
5.0E-4                    0.0315                   342.95151781397556
0.0015                    -0.0315                  370.98781019413696
0.0015                    -0.0305                  369.632352492598
0.0015                    -0.0295                  367.20693185384266
0.0015                    -0.0285                  363.41221022528873
0.0015                    -0.0275                  359.70949912934213
0.0015                    -0.0265                  355.9411360926063
0.0015                    -0.0255                  352.1060344993297
0.0015                    -0.0245                  348.9075726085699
0.0015                    -0.0235                  346.8497830433831
0.0015                    -0.0225                  345.10678472507254
0.0015                    -0.0215                  343.4388663914021
0.0015                    -0.0205                  342.5725990559232
0.0015                    -0.0195                  341.8802982461773
0.0015                    -0.0185                  340.79105913411433
0.0015                    -0.0175                  340.4047166457569
0.0015                    -0.0165                  340.07247336669
0.0015                    -0.0155                  339.2701850136841
0.0015                    -0.0145                  339.0509762983586
0.0015                    -0.0135                  338.78247436350745
0.0015                    -0.0125                  338.15856031863945
0.0015                    -0.0115                  337.55608124268633
0.0015                    -0.0105                  336.9297699568543
0.0015                    -0.0095                  336.1011879745954
0.0015                    -0.0085                  334.6466999921016
0.0015                    -0.0075                  333.2565901172007
0.0015                    -0.0065                  331.522396280029
0.0015                    -0.0055                  328.3342962709081
0.0015                    -0.0045                  323.4669221223142
0.0015                    -0.0035                  316.9234884798493
0.0015                    -0.0025                  311.9499210577558
0.0015                    -0.0015                  307.6512337706526
0.0015                    -5.0E-4                  303.3967228410677
0.0015                    5.0E-4                   298.3549887162668
0.0015                    0.0015                   295.41333489035276
0.0015                    0.0025                   294.14279949201483
0.0015                    0.0035                   293.1379137582884
0.0015                    0.0045                   293.10683262001476
0.0015                    0.0055                   293.13149795575737
0.0015                    0.0065                   293.15046490405865
0.0015                    0.0075                   293.1555617902029
0.0015                    0.0085                   293.15819423742795
0.0015                    0.0095                   293.15677268074637
0.0015                    0.0105                   293.1454825641159
0.0015                    0.0115                   293.130997520879
0.0015                    0.0125                   293.16288454459743
0.0015                    0.0135                   293.64164893602833
0.0015                    0.0145                   294.2930798002852
0.0015                    0.0155                   296.0256367132472
0.0015                    0.0165                   298.88663769275144
0.0015                    0.0175                   301.273026075235
0.0015                    0.0185                   304.32444104737306
0.0015                    0.0195                   307.7316018022098
0.0015                    0.0205                   313.0590296821432
0.0015                    0.0215                   315.0112295800841
0.0015                    0.0225                   317.6520282010384
0.0015                    0.0235                   321.0783485346851
0.0015                    0.0245                   324.0455279671564
0.0015                    0.0255                   326.55956764928067
0.0015                    0.0265                   329.6969148407683
0.0015                    0.0275                   333.03197864171386
0.0015                    0.0285                   335.6160946164933
0.0015                    0.0295                   338.73187193614604
0.0015                    0.0305                   340.98347217068266
0.0015                    0.0315                   342.13293544311284
0.0025                    -0.0315                  370.2363801415491
0.0025                    -0.0305                  368.4661396168603
0.0025                    -0.0295                  365.8075149165149
0.0025                    -0.0285                  362.03503774106616
0.0025                    -0.0275                  358.0498220531565
0.0025                    -0.0265                  354.19593777646213
0.0025                    -0.0255                  350.38699068257984
0.0025                    -0.0245                  347.4620468393134
0.0025                    -0.0235                  345.7046935488562
0.0025                    -0.0225                  343.94734025839904
0.0025                    -0.0215                  342.78874365830603
0.0025                    -0.0205                  342.0938060544856
0.0025                    -0.0195                  341.3988684506652
0.0025                    -0.0185                  341.0807141089892
0.0025                    -0.0175                  340.76463355829685
0.0025                    -0.0165                  340.4485530076044
0.0025                    -0.0155                  340.35378095336705
0.0025                    -0.0145                  340.1275444955123
0.0025                    -0.0135                  339.90130803765766
0.0025                    -0.0125                  339.4483683553952
0.0025                    -0.0115                  338.8433003577798
0.0025                    -0.0105                  338.2382323601644
0.0025                    -0.0095                  336.7961115246419
0.0025                    -0.0085                  335.3415003213476
0.0025                    -0.0075                  333.8868891180533
0.0025                    -0.0065                  330.6866952828591
0.0025                    -0.0055                  327.4982470322574
0.0025                    -0.0045                  324.30979878165573
0.0025                    -0.0035                  319.70569568466783
0.0025                    -0.0025                  314.73326733446174
0.0025                    -0.0015                  309.76191645186054
0.0025                    -5.0E-4                  304.71534307276
0.0025                    5.0E-4                   299.6593921172838
0.0025                    0.0015                   295.544707854825
0.0025                    0.0025                   294.53676300951673
0.0025                    0.0035                   293.5288181642085
0.0025                    0.0045                   293.10215797945887
0.0025                    0.0055                   293.1268142363623
0.0025                    0.0065                   293.1514704932656
0.0025                    0.0075                   293.1602056963354
0.0025                    0.0085                   293.16284855869947
0.0025                    0.0095                   293.16107305548684
0.0025                    0.0105                   293.1465879308946
0.0025                    0.0115                   293.1321028063023
0.0025                    0.0125                   293.35306938234424
0.0025                    0.0135                   293.83145932651814
0.0025                    0.0145                   294.309849270692
0.0025                    0.0155                   296.8304444049311
0.0025                    0.0165                   299.68764106712035
0.0025                    0.0175                   302.6235971111497
0.0025                    0.0185                   305.98209002548845
0.0025                    0.0195                   309.3405829398272
0.0025                    0.0205                   311.3783695789747
0.0025                    0.0215                   313.32678215339854
0.0025                    0.0225                   315.2175470734261
0.0025                    0.0235                   317.9122042622223
0.0025                    0.0245                   320.86751158945935
0.0025                    0.0255                   323.95713809349286
0.0025                    0.0265                   327.2182857333597
0.0025                    0.0275                   330.47943337322647
0.0025                    0.0285                   334.36352494030956
0.0025                    0.0295                   337.3998730602866
0.0025                    0.0305                   339.7162747370512
0.0025                    0.0315                   341.3143530722501
0.0035                    -0.0315                  368.7152441651883
0.0035                    -0.0305                  366.5496462963853
0.0035                    -0.0295                  364.3167954093424
0.0035                    -0.0285                  360.440028795813
0.0035                    -0.0275                  356.10035595356374
0.0035                    -0.0265                  351.9230769777693
0.0035                    -0.0255                  348.27675607908435
0.0035                    -0.0245                  346.76936773350224
0.0035                    -0.0235                  345.128255759907
0.0035                    -0.0225                  343.515497430402
0.0035                    -0.0215                  343.38462076991084
0.0035                    -0.0205                  342.88748894842473
0.0035                    -0.0195                  342.41824951268495
0.0035                    -0.0185                  342.9670182542818
0.0035                    -0.0175                  342.8775690402435
0.0035                    -0.0165                  342.8102469444935
0.0035                    -0.0155                  343.447669709804
0.0035                    -0.0145                  343.3739024469219
0.0035                    -0.0135                  343.0939213357682
0.0035                    -0.0125                  342.70398597188836
0.0035                    -0.0115                  342.1171819821986
0.0035                    -0.0105                  340.74693399081775
0.0035                    -0.0095                  338.2736262103761
0.0035                    -0.0085                  336.8190150070818
0.0035                    -0.0075                  333.8138926539151
0.0035                    -0.0065                  329.3627153975894
0.0035                    -0.0055                  326.17426714698775
0.0035                    -0.0045                  322.9847570406631
0.0035                    -0.0035                  319.45959982961324
0.0035                    -0.0025                  314.48717147940715
0.0035                    -0.0015                  309.5257168416963
0.0035                    -5.0E-4                  304.53497239160487
0.0035                    5.0E-4                   299.4790214361286
0.0035                    0.0015                   296.24320450718324
0.0035                    0.0025                   294.35229961980843
0.0035                    0.0035                   293.4957269689769
0.0035                    0.0045                   293.1450707577759
0.0035                    0.0055                   293.11997550078803
0.0035                    0.0065                   293.1459287760522
0.0035                    0.0075                   293.1687411823496
0.0035                    0.0085                   293.17138404471353
0.0035                    0.0095                   293.16106350271934
0.0035                    0.0105                   293.14765907739644
0.0035                    0.0115                   293.1667593623822
0.0035                    0.0125                   293.31984055013515
0.0035                    0.0135                   293.74526147270126
0.0035                    0.0145                   294.84232801288783
0.0035                    0.0155                   296.68602541104764
0.0035                    0.0165                   299.54322207323685
0.0035                    0.0175                   302.4887424631349
0.0035                    0.0185                   305.6726723693379
0.0035                    0.0195                   308.15606224045405
0.0035                    0.0205                   308.8151262253396
0.0035                    0.0215                   310.69168698460953
0.0035                    0.0225                   312.1897710653651
0.0035                    0.0235                   314.0303883567447
0.0035                    0.0245                   317.0078069839726
0.0035                    0.0255                   320.25833673349877
0.0035                    0.0265                   323.5154066206511
0.0035                    0.0275                   327.46488385616146
0.0035                    0.0285                   332.17879211318024
0.0035                    0.0295                   335.7767549213937
0.0035                    0.0305                   337.792118917433
0.0035                    0.0315                   339.5014842437845
0.0045                    -0.0315                  367.53364380090136
0.0045                    -0.0305                  365.147157347461
0.0045                    -0.0295                  362.7677360245608
0.0045                    -0.0285                  358.5200499812152
0.0045                    -0.0275                  354.17560901992744
0.0045                    -0.0265                  349.8311680586397
0.0045                    -0.0255                  347.5547702903811
0.0045                    -0.0245                  346.047381944799
0.0045                    -0.0235                  344.53999359921687
0.0045                    -0.0225                  343.9685568382683
0.0045                    -0.0215                  343.83768017777714
0.0045                    -0.0205                  343.68117184236394
0.0045                    -0.0195                  344.0062589968278
0.0045                    -0.0185                  344.55502773842466
0.0045                    -0.0175                  344.99050452219007
0.0045                    -0.0165                  345.5315041342082
0.0045                    -0.0155                  346.1689268995188
0.0045                    -0.0145                  346.6202603983314
0.0045                    -0.0135                  346.23689829855795
0.0045                    -0.0125                  345.8469629346781
0.0045                    -0.0115                  345.3272198518571
0.0045                    -0.0105                  342.8474108677833
0.0045                    -0.0095                  340.3676018837095
0.0045                    -0.0085                  337.92507363437846
0.0045                    -0.0075                  333.3395365061774
0.0045                    -0.0065                  328.75399937797636
0.0045                    -0.0055                  324.84990941576683
0.0045                    -0.0045                  321.65964751052275
0.0045                    -0.0035                  318.46938560527883
0.0045                    -0.0025                  314.2461036572591
0.0045                    -0.0015                  309.28951723153205
0.0045                    -5.0E-4                  304.33293080580495
0.0045                    5.0E-4                   300.36840401092616
0.0045                    0.0015                   297.2450962121106
0.0045                    0.0025                   294.1678362301001
0.0045                    0.0035                   293.7023494921483
0.0045                    0.0045                   293.3516932809473
0.0045                    0.0055                   293.1134391461209
0.0045                    0.0065                   293.1404953647973
0.0045                    0.0075                   293.1675515834736
0.0045                    0.0085                   293.1732423262331
0.0045                    0.0095                   293.16090371751505
0.0045                    0.0105                   293.148565108797
0.0045                    0.0115                   293.26471307864176
0.0045                    0.0125                   293.4177942663947
0.0045                    0.0135                   293.8047793809642
0.0045                    0.0145                   295.40229775068866
0.0045                    0.0155                   296.99981612041313
0.0045                    0.0165                   299.44773418165437
0.0045                    0.0175                   302.4000525970447
0.0045                    0.0185                   305.36325471318725
0.0045                    0.0195                   306.2068040795849
0.0045                    0.0205                   306.86586806447053
0.0045                    0.0215                   307.8522043926491
0.0045                    0.0225                   309.16199505730424
0.0045                    0.0235                   310.4717857219594
0.0045                    0.0245                   313.31064694224654
0.0045                    0.0255                   316.5611766917727
0.0045                    0.0265                   319.93881812740767
0.0045                    0.0275                   324.64072785468164
0.0045                    0.0285                   329.34263758195556
0.0045                    0.0295                   334.03486286475976
0.0045                    0.0305                   335.7717355691094
0.0045                    0.0315                   337.43511751189067
0.0055                    -0.0315                  366.3520434366144
0.0055                    -0.0305                  364.0671626455926
0.0055                    -0.0295                  361.7449351169354
0.0055                    -0.0285                  357.0783004245328
0.0055                    -0.0275                  352.7252218743837
0.0055                    -0.0265                  349.2575488909851
0.0055                    -0.0255                  347.369172346647
0.0055                    -0.0245                  345.8185771774824
0.0055                    -0.0235                  344.8212985089445
0.0055                    -0.0225                  344.944096393721
0.0055                    -0.0215                  344.8151305213382
0.0055                    -0.0205                  345.312506811324
0.0055                    -0.0195                  346.2406215646538
0.0055                    -0.0185                  346.7879974964463
0.0055                    -0.0175                  347.7745823681598
0.0055                    -0.0165                  348.7556669672607
0.0055                    -0.0155                  349.38887929343707
0.0055                    -0.0145                  349.6700380390958
0.0055                    -0.0135                  349.44843185236994
0.0055                    -0.0125                  349.0580617574381
0.0055                    -0.0115                  347.0209897122914
0.0055                    -0.0105                  344.42283368899905
0.0055                    -0.0095                  341.94457474471795
0.0055                    -0.0085                  336.71724496390544
0.0055                    -0.0075                  331.8033281011442
0.0055                    -0.0065                  327.2176626869453
0.0055                    -0.0055                  322.8258558457452
0.0055                    -0.0045                  319.4996318306393
0.0055                    -0.0035                  316.30502799394407
0.0055                    -0.0025                  314.39668319196653
0.0055                    -0.0015                  309.44378458256836
0.0055                    -5.0E-4                  304.5330116836598
0.0055                    5.0E-4                   300.16598214280833
0.0055                    0.0015                   297.0293674102508
0.0055                    0.0025                   294.61821454423585
0.0055                    0.0035                   293.67222052075687
0.0055                    0.0045                   293.3194392675804
0.0055                    0.0055                   293.14943070849534
0.0055                    0.0065                   293.1422014288039
0.0055                    0.0075                   293.16880803641124
0.0055                    0.0085                   293.1785442829926
0.0055                    0.0095                   293.1662289102708
0.0055                    0.0105                   293.1719795036696
0.0055                    0.0115                   293.25056868593003
0.0055                    0.0125                   293.40354155870176
0.0055                    0.0135                   293.9304335524548
0.0055                    0.0145                   295.2548150566781
0.0055                    0.0155                   296.92639987538394
0.0055                    0.0165                   299.59937778733394
0.0055                    0.0175                   302.5541428963953
0.0055                    0.0185                   304.58528254055767
0.0055                    0.0195                   305.4635230282304
0.0055                    0.0205                   306.1236815249124
0.0055                    0.0215                   306.4900667282846
0.0055                    0.0225                   307.70181672944193
0.0055                    0.0235                   308.8741079367609
0.0055                    0.0245                   310.4716454622872
0.0055                    0.0255                   313.76153717243534
0.0055                    0.0265                   316.92626204100145
0.0055                    0.0275                   320.7549945154472
0.0055                    0.0285                   325.45690424272107
0.0055                    0.0295                   330.3216769156446
0.0055                    0.0305                   332.9782896123823
0.0055                    0.0315                   335.36875077999684
0.0065                    -0.0315                  365.4500268725789
0.0065                    -0.0305                  363.09153005535165
0.0065                    -0.0295                  360.58548946855154
0.0065                    -0.0285                  355.918854776149
0.0065                    -0.0275                  351.27483472883995
0.0065                    -0.0265                  349.29166697127073
0.0065                    -0.0255                  347.3100903717577
0.0065                    -0.0245                  345.6436580995563
0.0065                    -0.0235                  345.681361506689
0.0065                    -0.0225                  345.9360778612049
0.0065                    -0.0215                  346.047830615065
0.0065                    -0.0205                  347.2801334646398
0.0065                    -0.0195                  348.51243631421454
0.0065                    -0.0185                  349.3186974774709
0.0065                    -0.0175                  350.67580795705203
0.0065                    -0.0165                  352.03291843663317
0.0065                    -0.0155                  352.6000749619743
0.0065                    -0.0145                  352.63868707063926
0.0065                    -0.0135                  352.6772991793042
0.0065                    -0.0125                  351.56450325391404
0.0065                    -0.0115                  348.68734875079963
0.0065                    -0.0105                  345.8471322270953
0.0065                    -0.0095                  342.00038383707675
0.0065                    -0.0085                  335.82833280066313
0.0065                    -0.0075                  329.954641373812
0.0065                    -0.0065                  325.47550048099663
0.0065                    -0.0055                  321.1226334280567
0.0065                    -0.0045                  317.1017223694959
0.0065                    -0.0035                  314.6957336952221
0.0065                    -0.0025                  312.8871138791096
0.0065                    -0.0015                  309.69847722548366
0.0065                    -5.0E-4                  304.94288623334353
0.0065                    5.0E-4                   300.2430360993023
0.0065                    0.0015                   296.5953103826964
0.0065                    0.0025                   295.16079956868384
0.0065                    0.0035                   293.7262887546713
0.0065                    0.0045                   293.32205019826677
0.0065                    0.0055                   293.2241063451574
0.0065                    0.0065                   293.14510026650765
0.0065                    0.0075                   293.16191632046525
0.0065                    0.0085                   293.17226101878475
0.0065                    0.0095                   293.1723714244897
0.0065                    0.0105                   293.20741213784333
0.0065                    0.0115                   293.24581259862293