% Model:              SIMBench260525.mph
% Version:            COMSOL 6.2.0.339
% Date:               May 27 2026, 17:35
% Dimension:          2
% Nodes:              4096
% Expressions:        1
% Description:        温度
% Length unit:        m
% x                       y                        T (K)
5.0E-4                    -0.0315                  381.32454195524787
5.0E-4                    -0.0305                  380.32234636299086
5.0E-4                    -0.0295                  379.30715473267827
5.0E-4                    -0.0285                  377.2264665329865
5.0E-4                    -0.0275                  374.5589735315759
5.0E-4                    -0.0265                  371.7854544600327
5.0E-4                    -0.0255                  367.3480320837383
5.0E-4                    -0.0245                  362.5459291784339
5.0E-4                    -0.0235                  357.4184063169605
5.0E-4                    -0.0225                  351.1310582308394
5.0E-4                    -0.0215                  344.9900496620889
5.0E-4                    -0.0205                  338.8457154612169
5.0E-4                    -0.0195                  333.40266335077797
5.0E-4                    -0.0185                  328.2649008491672
5.0E-4                    -0.0175                  323.9593952346116
5.0E-4                    -0.0165                  321.0177581008588
5.0E-4                    -0.0155                  318.13867409730045
5.0E-4                    -0.0145                  316.2297088202651
5.0E-4                    -0.0135                  314.79354817957983
5.0E-4                    -0.0125                  313.34157482863463
5.0E-4                    -0.0115                  312.5290445335766
5.0E-4                    -0.0105                  311.65275105304687
5.0E-4                    -0.0095                  310.7764575725171
5.0E-4                    -0.0085                  310.33465017521604
5.0E-4                    -0.0075                  309.57701160707245
5.0E-4                    -0.0065                  308.8193730389288
5.0E-4                    -0.0055                  308.5396740525564
5.0E-4                    -0.0045                  307.82555107300055
5.0E-4                    -0.0035                  307.15615627161486
5.0E-4                    -0.0025                  306.9557511246833
5.0E-4                    -0.0015                  306.355553398755
5.0E-4                    -5.0E-4                  305.8598913031106
5.0E-4                    5.0E-4                   305.39790878008
5.0E-4                    0.0015                   304.60036361799774
5.0E-4                    0.0025                   303.8692630505948
5.0E-4                    0.0035                   302.54145646154024
5.0E-4                    0.0045                   300.89080788161976
5.0E-4                    0.0055                   299.10640629666943
5.0E-4                    0.0065                   297.6551596255765
5.0E-4                    0.0075                   296.310832023951
5.0E-4                    0.0085                   294.1525594663285
5.0E-4                    0.0095                   293.8339356953112
5.0E-4                    0.0105                   293.64243513045307
5.0E-4                    0.0115                   293.5026958134266
5.0E-4                    0.0125                   293.577307340846
5.0E-4                    0.0135                   293.6519188682654
5.0E-4                    0.0145                   293.3072656984166
5.0E-4                    0.0155                   293.21078814372754
5.0E-4                    0.0165                   293.18505962559567
5.0E-4                    0.0175                   293.2283060065936
5.0E-4                    0.0185                   293.3576794734351
5.0E-4                    0.0195                   293.313131898592
5.0E-4                    0.0205                   293.26858432374894
5.0E-4                    0.0215                   293.26300477927555
5.0E-4                    0.0225                   293.2826517472747
5.0E-4                    0.0235                   293.46154683919895
5.0E-4                    0.0245                   294.10015452159854
5.0E-4                    0.0255                   294.65396361460023
5.0E-4                    0.0265                   295.88019763630354
5.0E-4                    0.0275                   299.05849425932036
5.0E-4                    0.0285                   302.44824036445857
5.0E-4                    0.0295                   305.22055398142396
5.0E-4                    0.0305                   307.58978187882445
5.0E-4                    0.0315                   309.95900977622495
0.0015                    -0.0315                  379.68933131406163
0.0015                    -0.0305                  379.3110264233831
0.0015                    -0.0295                  377.97426557598703
0.0015                    -0.0285                  375.9094357523912
0.0015                    -0.0275                  373.52102528124885
0.0015                    -0.0265                  369.7899734289335
0.0015                    -0.0255                  365.6315191465085
0.0015                    -0.0245                  360.95798489391484
0.0015                    -0.0235                  354.7592191518504
0.0015                    -0.0225                  348.2755043735342
0.0015                    -0.0215                  342.1238600146292
0.0015                    -0.0205                  335.97287454951436
0.0015                    -0.0195                  329.9192432214191
0.0015                    -0.0185                  324.8996814122376
0.0015                    -0.0175                  321.6647748856156
0.0015                    -0.0165                  318.5090758607081
0.0015                    -0.0155                  315.9427810026292
0.0015                    -0.0145                  314.79540835513063
0.0015                    -0.0135                  313.5431734866882
0.0015                    -0.0125                  312.3798381006402
0.0015                    -0.0115                  311.90961703417116
0.0015                    -0.0105                  311.24950256911774
0.0015                    -0.0095                  310.65316869705214
0.0015                    -0.0085                  310.45373458440463
0.0015                    -0.0075                  309.92408037721447
0.0015                    -0.0065                  309.576487827656
0.0015                    -0.0055                  309.5834388995519
0.0015                    -0.0045                  309.07410452095036
0.0015                    -0.0035                  308.91253290537475
0.0015                    -0.0025                  309.03514358475826
0.0015                    -0.0015                  308.55011098785246
0.0015                    -5.0E-4                  308.4101545852732
0.0015                    5.0E-4                   308.3964945893341
0.0015                    0.0015                   307.62578088672797
0.0015                    0.0025                   307.02756950868365
0.0015                    0.0035                   306.34544690136113
0.0015                    0.0045                   304.67752625803263
0.0015                    0.0055                   302.71968811676686
0.0015                    0.0065                   300.901225671829
0.0015                    0.0075                   299.2370296168399
0.0015                    0.0085                   296.4780577387961
0.0015                    0.0095                   294.6214518988678
0.0015                    0.0105                   294.4355048871951
0.0015                    0.0115                   294.2558405913136
0.0015                    0.0125                   294.26876197085784
0.0015                    0.0135                   293.8129558436401
0.0015                    0.0145                   293.41658381847407
0.0015                    0.0155                   293.23480246131135
0.0015                    0.0165                   293.2049813712919
0.0015                    0.0175                   293.27861770337574
0.0015                    0.0185                   293.4763309402722
0.0015                    0.0195                   293.5931017718165
0.0015                    0.0205                   293.55898909910167
0.0015                    0.0215                   293.53851915263533
0.0015                    0.0225                   293.5506853212595
0.0015                    0.0235                   294.2023080868467
0.0015                    0.0245                   294.96311394722966
0.0015                    0.0255                   295.71269072303903
0.0015                    0.0265                   297.78442240212183
0.0015                    0.0275                   300.27621717568485
0.0015                    0.0285                   303.5074861919478
0.0015                    0.0295                   305.83428214200165
0.0015                    0.0305                   308.18495074348596
0.0015                    0.0315                   309.9845098057983
0.0025                    -0.0315                  378.0541206728754
0.0025                    -0.0305                  377.0501311381454
0.0025                    -0.0295                  375.5344141888214
0.0025                    -0.0285                  373.61815510190615
0.0025                    -0.0275                  370.937041241334
0.0025                    -0.0265                  366.9531368646749
0.0025                    -0.0255                  362.94056806953927
0.0025                    -0.0245                  357.7911979254562
0.0025                    -0.0235                  351.39019057012945
0.0025                    -0.0225                  344.9891832148027
0.0025                    -0.0215                  338.84930932400323
0.0025                    -0.0205                  332.7074397374813
0.0025                    -0.0195                  326.5655701509594
0.0025                    -0.0185                  322.5826828577958
0.0025                    -0.0175                  319.3482561133359
0.0025                    -0.0165                  316.1138293688759
0.0025                    -0.0155                  314.6531415675777
0.0025                    -0.0145                  313.50207231084727
0.0025                    -0.0135                  312.3510030541169
0.0025                    -0.0125                  311.88626036273274
0.0025                    -0.0115                  311.4140939060866
0.0025                    -0.0105                  310.96169070812647
0.0025                    -0.0095                  310.8431872909712
0.0025                    -0.0085                  310.64296642112674
0.0025                    -0.0075                  310.5753344174038
0.0025                    -0.0065                  310.5921152912101
0.0025                    -0.0055                  310.5988189272577
0.0025                    -0.0045                  310.72188038230456
0.0025                    -0.0035                  310.84426570205846
0.0025                    -0.0025                  310.96665102181237
0.0025                    -0.0015                  311.07031899467034
0.0025                    -5.0E-4                  311.0567261135914
0.0025                    5.0E-4                   311.0431332325125
0.0025                    0.0015                   310.75849549052236
0.0025                    0.0025                   310.17969622791946
0.0025                    0.0035                   309.60089696531657
0.0025                    0.0045                   308.2686556270284
0.0025                    0.0055                   306.3083995788009
0.0025                    0.0065                   304.34814353057345
0.0025                    0.0075                   302.04281841468776
0.0025                    0.0085                   299.384037522272
0.0025                    0.0095                   296.6323430613539
0.0025                    0.0105                   295.8444609894165
0.0025                    0.0115                   295.6568579101533
0.0025                    0.0125                   294.5071955951131
0.0025                    0.0135                   293.94648894430486
0.0025                    0.0145                   293.52590193853155
0.0025                    0.0155                   293.30845995675986
0.0025                    0.0165                   293.2481164254127
0.0025                    0.0175                   293.3289294001579
0.0025                    0.0185                   293.5501363433049
0.0025                    0.0195                   293.80723581172253
0.0025                    0.0205                   293.99800103793393
0.0025                    0.0215                   293.99134512080366
0.0025                    0.0225                   294.4657834417881
0.0025                    0.0235                   295.2534004990032
0.0025                    0.0245                   296.0410175562183
0.0025                    0.0255                   297.7674749988863
0.0025                    0.0265                   299.7261615898247
0.0025                    0.0275                   301.76037884702305
0.0025                    0.0285                   304.1040997607253
0.0025                    0.0295                   306.38752138342846
0.0025                    0.0305                   308.388947743938
0.0025                    0.0315                   309.98493474328154
0.0035                    -0.0315                  375.0063061193247
0.0035                    -0.0305                  373.70554341919365
0.0035                    -0.0295                  372.34368661139376
0.0035                    -0.0285                  370.0712467425568
0.0035                    -0.0275                  366.29225876776525
0.0035                    -0.0265                  362.43918203438085
0.0035                    -0.0255                  358.0999450835376
0.0035                    -0.0245                  351.6789653760837
0.0035                    -0.0235                  345.2701516504581
0.0035                    -0.0225                  339.0272586061568
0.0035                    -0.0215                  333.43050922453676
0.0035                    -0.0205                  327.4195973939287
0.0035                    -0.0195                  322.4506027835211
0.0035                    -0.0185                  320.05286189499793
0.0035                    -0.0175                  316.90919835388723
0.0035                    -0.0165                  314.8018430216369
0.0035                    -0.0155                  314.2185605483497
0.0035                    -0.0145                  313.0674912916193
0.0035                    -0.0135                  312.4934571745308
0.0035                    -0.0125                  312.38561623054625
0.0035                    -0.0115                  311.9134497739001
0.0035                    -0.0105                  311.9896514027022
0.0035                    -0.0095                  312.2314735234931
0.0035                    -0.0085                  312.03125265364866
0.0035                    -0.0075                  312.52382975099397
0.0035                    -0.0065                  312.9737472270574
0.0035                    -0.0055                  312.980450863105
0.0035                    -0.0045                  313.563219638381
0.0035                    -0.0035                  313.954964890286
0.0035                    -0.0025                  314.07735021004
0.0035                    -0.0015                  314.283685597128
0.0035                    -5.0E-4                  314.35173814687107
0.0035                    5.0E-4                   314.28449574750556
0.0035                    0.0015                   313.8403022199353
0.0035                    0.0025                   313.2936915564013
0.0035                    0.0035                   312.60726061854143
0.0035                    0.0045                   311.65402049850593
0.0035                    0.0055                   309.7827802773492
0.0035                    0.0065                   308.0202769483836
0.0035                    0.0075                   306.408612893974
0.0035                    0.0085                   303.74983200155833
0.0035                    0.0095                   300.6403111713686
0.0035                    0.0105                   298.48756924018795
0.0035                    0.0115                   297.67622414938603
0.0035                    0.0125                   294.92532891340636
0.0035                    0.0135                   294.1831230171708
0.0035                    0.0145                   293.68192510968856
0.0035                    0.0155                   293.32642897025596
0.0035                    0.0165                   293.2779532705256
0.0035                    0.0175                   293.44016383405483
0.0035                    0.0185                   293.6719628580737
0.0035                    0.0195                   294.37828986683996
0.0035                    0.0205                   295.2667663507834
0.0035                    0.0215                   295.26150802537194
0.0035                    0.0225                   296.8019157118326
0.0035                    0.0235                   297.7977331208249
0.0035                    0.0245                   299.0843552361445
0.0035                    0.0255                   301.02369277628867
0.0035                    0.0265                   302.982379367227
0.0035                    0.0275                   303.48855760057165
0.0035                    0.0285                   304.7954375498464
0.0035                    0.0295                   306.82646831433044
0.0035                    0.0305                   308.7523574342621
0.0035                    0.0315                   310.27336667499424
0.0045                    -0.0315                  371.7959344558649
0.0045                    -0.0305                  370.45397567587145
0.0045                    -0.0295                  369.1017507494522
0.0045                    -0.0285                  365.4165508777247
0.0045                    -0.0275                  361.63887257322995
0.0045                    -0.0265                  357.8611942687352
0.0045                    -0.0255                  351.99133702221894
0.0045                    -0.0245                  345.57035731476503
0.0045                    -0.0235                  339.1501127307869
0.0045                    -0.0225                  333.40961198461696
0.0045                    -0.0215                  327.8128626029968
0.0045                    -0.0205                  322.1317550503761
0.0045                    -0.0195                  319.5072248187377
0.0045                    -0.0185                  317.1094839302145
0.0045                    -0.0175                  314.5930757060408
0.0045                    -0.0165                  314.01820712997306
0.0045                    -0.0155                  313.4433385539054
0.0045                    -0.0145                  312.78890630440463
0.0045                    -0.0135                  312.73788806742084
0.0045                    -0.0125                  312.68686983043705
0.0045                    -0.0115                  312.6230944950416
0.0045                    -0.0105                  313.01761209727783
0.0045                    -0.0095                  313.41212969951414
0.0045                    -0.0085                  313.7509663071645
0.0045                    -0.0075                  314.4723250845841
0.0045                    -0.0065                  315.19368386200375
0.0045                    -0.0055                  315.67954314510285
0.0045                    -0.0045                  316.34484950208747
0.0045                    -0.0035                  317.01015585907214
0.0045                    -0.0025                  317.23899466622913
0.0045                    -0.0015                  317.4454448319093
0.0045                    -5.0E-4                  317.6467501801508
0.0045                    5.0E-4                   317.3177815527979
0.0045                    0.0015                   316.8735880252276
0.0045                    0.0025                   316.4076868848831
0.0045                    0.0035                   315.4921895358987
0.0045                    0.0045                   314.53894941586316
0.0045                    0.0055                   313.3077127772781
0.0045                    0.0065                   311.74291439041815
0.0045                    0.0075                   310.1781160035582
0.0045                    0.0085                   307.8954664983798
0.0045                    0.0095                   304.6482792813832
0.0045                    0.0105                   301.40109206438666
0.0045                    0.0115                   298.84206584524884
0.0045                    0.0125                   296.0911706092692
0.0045                    0.0135                   294.44776836591853
0.0045                    0.0145                   293.96583460889565
0.0045                    0.0155                   293.4485355539608
0.0045                    0.0165                   293.37797414250747
0.0045                    0.0175                   293.5920875690759
0.0045                    0.0185                   293.8211734386304
0.0045                    0.0195                   295.0141991290779
0.0045                    0.0205                   296.2072248195253
0.0045                    0.0215                   297.41984237624035
0.0045                    0.0225                   298.960250062701
0.0045                    0.0235                   300.4188326288098
0.0045                    0.0245                   302.35002825642505
0.0045                    0.0255                   304.16255794061044
0.0045                    0.0265                   304.4932489563747
0.0045                    0.0275                   304.71922353741206
0.0045                    0.0285                   306.1203285761725
0.0045                    0.0295                   307.6570691389545
0.0045                    0.0305                   309.07447983702076
0.0045                    0.0315                   310.5542474907816
0.0055                    -0.0315                  368.58556279240514
0.0055                    -0.0305                  366.9309136115809
0.0055                    -0.0295                  365.18758181242515
0.0055                    -0.0285                  360.57558385109144
0.0055                    -0.0275                  356.78368442084417
0.0055                    -0.0265                  352.106180573243
0.0055                    -0.0255                  346.0450646996378
0.0055                    -0.0245                  339.6115868048888
0.0055                    -0.0235                  333.91113883600394
0.0055                    -0.0225                  328.8770582206335
0.0055                    -0.0215                  323.28268004755193
0.0055                    -0.0205                  319.9106132965844
0.0055                    -0.0195                  317.82786038324747
0.0055                    -0.0185                  315.4177220525552
0.0055                    -0.0175                  314.4227077300718
0.0055                    -0.0165                  313.939238268157
0.0055                    -0.0155                  313.3581229807673
0.0055                    -0.0145                  313.38626845393895
0.0055                    -0.0135                  313.3873082109548
0.0055                    -0.0125                  313.3330594970693
0.0055                    -0.0115                  313.963538848044
0.0055                    -0.0105                  314.38450737298325
0.0055                    -0.0095                  314.77843567615605
0.0055                    -0.0085                  315.66854967769126
0.0055                    -0.0075                  316.389914735302
0.0055                    -0.0065                  317.10046144069133
0.0055                    -0.0055                  317.71096633023916
0.0055                    -0.0045                  318.3762714293761
0.0055                    -0.0035                  318.91812028620734
0.0055                    -0.0025                  319.0396890477349
0.0055                    -0.0015                  319.2457594277252
0.0055                    -5.0E-4                  319.21246595857946
0.0055                    5.0E-4                   318.7310410156924
0.0055                    0.0015                   318.2694507178118
0.0055                    0.0025                   317.43476512453367
0.0055                    0.0035                   316.352579341892
0.0055                    0.0045                   315.351844593843
0.0055                    0.0055                   313.94638154295626
0.0055                    0.0065                   312.29076398675454
0.0055                    0.0075                   310.6034922763027
0.0055                    0.0085                   309.25443403321555
0.0055                    0.0095                   306.0946726498338
0.0055                    0.0105                   302.65249230389134
0.0055                    0.0115                   299.33001371771974
0.0055                    0.0125                   296.61018597214206
0.0055                    0.0135                   294.463278708663
0.0055                    0.0145                   293.8576555872138
0.0055                    0.0155                   293.438356747282
0.0055                    0.0165                   293.34882756914
0.0055                    0.0175                   293.5629409957084
0.0055                    0.0185                   294.2642440920764
0.0055                    0.0195                   295.3931994522052
0.0055                    0.0205                   296.7086285610657
0.0055                    0.0215                   298.54922772214593
0.0055                    0.0225                   300.0844669818739
0.0055                    0.0235                   300.972170403733
0.0055                    0.0245                   302.2448411332905
0.0055                    0.0255                   303.80201135799933
0.0055                    0.0265                   305.0475987067988
0.0055                    0.0275                   305.9498894742524
0.0055                    0.0285                   307.1432891195643
0.0055                    0.0295                   308.15134013609
0.0055                    0.0305                   309.4238597453068
0.0055                    0.0315                   310.83706157944624
0.0065                    -0.0315                  365.0449009680419
0.0065                    -0.0305                  363.0721115937501
0.0065                    -0.0295                  361.0832398011519
0.0065                    -0.0285                  356.47124183981816
0.0065                    -0.0275                  351.83161937199475
0.0065                    -0.0265                  345.9161207755382
0.0065                    -0.0255                  340.0006221790817
0.0065                    -0.0245                  333.6694703697198
0.0065                    -0.0235                  329.0098968348533
0.0065                    -0.0225                  324.39387479550334
0.0065                    -0.0215                  319.7764692024467
0.0065                    -0.0205                  318.0760571882572
0.0065                    -0.0195                  316.3756451740677
0.0065                    -0.0185                  314.61992528885906
0.0065                    -0.0175                  314.3411508426699
0.0065                    -0.0165                  314.04330073522704
0.0065                    -0.0155                  313.75643973168036
0.0065                    -0.0145                  313.9837321039968
0.0065                    -0.0135                  314.1551119846405
0.0065                    -0.0125                  314.4727070151685
0.0065                    -0.0115                  315.2213356609696
0.0065                    -0.0105                  315.8572576908008
0.0065                    -0.0095                  316.55030786485395
0.0065                    -0.0085                  317.46690516868193
0.0065                    -0.0075                  318.29773391198285
0.0065                    -0.0065                  318.9343520445178
0.0065                    -0.0055                  319.5338326884039
0.0065                    -0.0045                  320.1702511459471
0.0065                    -0.0035                  320.3606671113515
0.0065                    -0.0025                  320.4472820174311
0.0065                    -0.0015                  320.61605400798345
0.0065                    -5.0E-4                  320.1553603303761
0.0065                    5.0E-4                   319.6592957454479
0.0065                    0.0015                   319.1040955292118
0.0065                    0.0025                   317.91047113679736
0.0065                    0.0035                   316.7168467443829
0.0065                    0.0045                   315.5246817025099
0.0065                    0.0055                   313.97719183676975
0.0065                    0.0065                   312.399143887264
0.0065                    0.0075                   310.9253613702334
0.0065                    0.0085                   309.5763031271462
0.0065                    0.0095                   307.3183066824207
0.0065                    0.0105                   303.557380686333
0.0065                    0.0115                   299.78577208997945