% Model:              SIMBench260525.mph
% Version:            COMSOL 6.2.0.339
% Date:               May 27 2026, 17:21
% Dimension:          2
% Nodes:              4096
% Expressions:        1
% Description:        温度
% Length unit:        m
% x                       y                        T (K)
% mirrored_by_python_y_to_minus_y, coord_match_decimals=12
0.0005 -0.0315 293.084472726
0.0005 -0.0305 293.117842141
0.0005 -0.0295 293.151211557
0.0005 -0.0285 293.15091326
0.0005 -0.0275 293.167949023
0.0005 -0.0265 293.184984786
0.0005 -0.0255 293.164109157
0.0005 -0.0245 293.152295885
0.0005 -0.0235 293.227448139
0.0005 -0.0225 293.396389616
0.0005 -0.0215 293.792378423
0.0005 -0.0205 293.767903757
0.0005 -0.0195 293.74342909
0.0005 -0.0185 294.494441359
0.0005 -0.0175 294.820026079
0.0005 -0.0165 295.453186133
0.0005 -0.0155 298.508190868
0.0005 -0.0145 301.367546269
0.0005 -0.0135 303.713310902
0.0005 -0.0125 305.287294046
0.0005 -0.0115 307.145759701
0.0005 -0.0105 308.285304559
0.0005 -0.0095 308.891277365
0.0005 -0.0085 309.580781938
0.0005 -0.0075 309.861281108
0.0005 -0.0065 310.151730581
0.0005 -0.0055 310.445584674
0.0005 -0.0045 310.489634836
0.0005 -0.0035 310.590757322
0.0005 -0.0025 310.691879809
0.0005 -0.0015 310.658731558
0.0005 -0.0005 310.67262402
0.0005 0.0005 310.681316441
0.0005 0.0015 310.640422991
0.0005 0.0025 310.630342743
0.0005 0.0035 310.61113931
0.0005 0.0045 310.589115576
0.0005 0.0055 310.585142182
0.0005 0.0065 310.573798282
0.0005 0.0075 310.594087678
0.0005 0.0085 310.627133324
0.0005 0.0095 310.660946279
0.0005 0.0105 310.762945288
0.0005 0.0115 310.870138895
0.0005 0.0125 311.008651166
0.0005 0.0135 311.127159582
0.0005 0.0145 311.245667998
0.0005 0.0155 311.461865999
0.0005 0.0165 311.561741091
0.0005 0.0175 311.663932845
0.0005 0.0185 311.889695822
0.0005 0.0195 312.037964841
0.0005 0.0205 312.196044865
0.0005 0.0215 312.421094937
0.0005 0.0225 312.660779134
0.0005 0.0235 312.87740056
0.0005 0.0245 313.273466902
0.0005 0.0255 313.766707772
0.0005 0.0265 314.170076179
0.0005 0.0275 315.066002787
0.0005 0.0285 316.058095155
0.0005 0.0295 317.15097068
0.0005 0.0305 318.315031093
0.0005 0.0315 319.481219843
0.0015 -0.0315 293.228486966
0.0015 -0.0305 293.228358605
0.0015 -0.0295 293.241833547
0.0015 -0.0285 293.217275975
0.0015 -0.0275 293.227463715
0.0015 -0.0265 293.211623221
0.0015 -0.0255 293.169615579
0.0015 -0.0245 293.164836829
0.0015 -0.0235 293.248106152
0.0015 -0.0225 293.609550554
0.0015 -0.0215 294.089260679
0.0015 -0.0205 294.436072572
0.0015 -0.0195 294.834518774
0.0015 -0.0185 295.977071227
0.0015 -0.0175 296.578564308
0.0015 -0.0165 298.908946783
0.0015 -0.0155 302.171583407
0.0015 -0.0145 305.066028292
0.0015 -0.0135 306.286179541
0.0015 -0.0125 307.336951098
0.0015 -0.0115 309.138273072
0.0015 -0.0105 309.334540582
0.0015 -0.0095 309.643650627
0.0015 -0.0085 310.199957648
0.0015 -0.0075 310.196710406
0.0015 -0.0065 310.3083446
0.0015 -0.0055 310.473294271
0.0015 -0.0045 310.399026559
0.0015 -0.0035 310.420207548
0.0015 -0.0025 310.430421811
0.0015 -0.0015 310.352651498
0.0015 -0.0005 310.339127012
0.0015 0.0005 310.298981494
0.0015 0.0015 310.231727364
0.0015 0.0025 310.213463758
0.0015 0.0035 310.169521436
0.0015 0.0045 310.118853783
0.0015 0.0055 310.114880389
0.0015 0.0065 310.091861257
0.0015 0.0075 310.077727265
0.0015 0.0085 310.110970119
0.0015 0.0095 310.145443968
0.0015 0.0105 310.202607576
0.0015 0.0115 310.324452201
0.0015 0.0125 310.481425349
0.0015 0.0135 310.620526454
0.0015 0.0145 310.814922908
0.0015 0.0155 311.100062083
0.0015 0.0165 311.271081859
0.0015 0.0175 311.480567596
0.0015 0.0185 311.75776564
0.0015 0.0195 311.934944387
0.0015 0.0205 312.128055543
0.0015 0.0215 312.334879223
0.0015 0.0225 312.572169068
0.0015 0.0235 312.74646291
0.0015 0.0245 312.931037152
0.0015 0.0255 313.409491961
0.0015 0.0265 313.716509939
0.0015 0.0275 314.167709197
0.0015 0.0285 315.214759762
0.0015 0.0295 316.347988749
0.0015 0.0305 317.50702648
0.0015 0.0315 318.814355407
0.0025 -0.0315 293.373978848
0.0025 -0.0305 293.367969975
0.0025 -0.0295 293.337525181
0.0025 -0.0285 293.295220461
0.0025 -0.0275 293.28151934
0.0025 -0.0265 293.224553062
0.0025 -0.0255 293.175122002
0.0025 -0.0245 293.185664715
0.0025 -0.0235 293.397475243
0.0025 -0.0225 293.822711491
0.0025 -0.0215 294.317471004
0.0025 -0.0205 294.956342785
0.0025 -0.0195 296.418720434
0.0025 -0.0185 297.574352471
0.0025 -0.0175 299.017681639
0.0025 -0.0165 302.291004221
0.0025 -0.0155 305.564326803
0.0025 -0.0145 307.62970086
0.0025 -0.0135 308.618851195
0.0025 -0.0125 309.608001531
0.0025 -0.0115 310.056100426
0.0025 -0.0105 310.252367936
0.0025 -0.0095 310.448635446
0.0025 -0.0085 310.474787598
0.0025 -0.0075 310.471540356
0.0025 -0.0065 310.468293115
0.0025 -0.0055 310.397312928
0.0025 -0.0045 310.323028061
0.0025 -0.0035 310.250787509
0.0025 -0.0025 310.174373554
0.0025 -0.0015 310.096681346
0.0025 -0.0005 310.025098606
0.0025 0.0005 309.958059034
0.0025 0.0015 309.891019462
0.0025 0.0025 309.830586005
0.0025 0.0035 309.779878162
0.0025 0.0045 309.729170319
0.0025 0.0055 309.687150555
0.0025 0.0065 309.664495281
0.0025 0.0075 309.641840007
0.0025 0.0085 309.64338877
0.0025 0.0095 309.679010234
0.0025 0.0105 309.714631699
0.0025 0.0115 309.822992521
0.0025 0.0125 309.980630027
0.0025 0.0135 310.136110534
0.0025 0.0145 310.395011459
0.0025 0.0155 310.679768243
0.0025 0.0165 310.998734703
0.0025 0.0175 311.277831936
0.0025 0.0185 311.555599453
0.0025 0.0195 311.89998522
0.0025 0.0205 312.105471443
0.0025 0.0215 312.310957665
0.0025 0.0225 312.508738522
0.0025 0.0235 312.683902038
0.0025 0.0245 312.859065553
0.0025 0.0255 313.069182732
0.0025 0.0265 313.404253286
0.0025 0.0275 313.741886212
0.0025 0.0285 314.538034878
0.0025 0.0295 315.695784585
0.0025 0.0305 316.896224174
0.0025 0.0315 318.147490971
0.0035 -0.0315 293.50705201
0.0035 -0.0305 293.508726526
0.0035 -0.0295 293.480931571
0.0035 -0.0285 293.416495369
0.0035 -0.0275 293.298378435
0.0035 -0.0265 293.236211341
0.0035 -0.0255 293.204966717
0.0035 -0.0245 293.245635735
0.0035 -0.0235 293.4316438
0.0035 -0.0225 294.16497569
0.0035 -0.0215 295.1374765
0.0035 -0.0205 296.565856473
0.0035 -0.0195 299.494505627
0.0035 -0.0185 300.650137664
0.0035 -0.0175 302.653726301
0.0035 -0.0165 305.339708998
0.0035 -0.0155 308.484008171
0.0035 -0.0145 308.704436766
0.0035 -0.0135 309.462726629
0.0035 -0.0125 310.215452141
0.0035 -0.0115 310.189745713
0.0035 -0.0105 310.355694105
0.0035 -0.0095 310.445582039
0.0035 -0.0085 310.374008837
0.0035 -0.0075 310.370761596
0.0035 -0.0065 310.327851023
0.0035 -0.0055 310.253039751
0.0035 -0.0045 310.178754884
0.0035 -0.0035 310.117689426
0.0035 -0.0025 310.05454938
0.0035 -0.0015 309.976857172
0.0035 -0.0005 309.925083644
0.0035 0.0005 309.867754759
0.0035 0.0015 309.801103053
0.0035 0.0025 309.748442691
0.0035 0.0035 309.697041838
0.0035 0.0045 309.643603537
0.0035 0.0055 309.57803709
0.0035 0.0065 309.546500714
0.0035 0.0075 309.509167173
0.0035 0.0085 309.44335554
0.0035 0.0095 309.472518371
0.0035 0.0105 309.47826604
0.0035 0.0115 309.467044115
0.0035 0.0125 309.624681621
0.0035 0.0135 309.757397878
0.0035 0.0145 309.912826093
0.0035 0.0155 310.197582877
0.0035 0.0165 310.608745693
0.0035 0.0175 310.988311824
0.0035 0.0185 311.266079341
0.0035 0.0195 311.902410276
0.0035 0.0205 312.309462464
0.0035 0.0215 312.515849591
0.0035 0.0225 312.728791174
0.0035 0.0235 312.91559466
0.0035 0.0245 313.058871203
0.0035 0.0255 313.119500034
0.0035 0.0265 313.397562528
0.0035 0.0275 313.774101625
0.0035 0.0285 314.17742008
0.0035 0.0295 315.159839234
0.0035 0.0305 316.377906822
0.0035 0.0315 317.672517771
0.0045 -0.0315 293.608219225
0.0045 -0.0305 293.631204201
0.0045 -0.0295 293.574987723
0.0045 -0.0285 293.441012868
0.0045 -0.0275 293.32127376
0.0045 -0.0265 293.252503814
0.0045 -0.0255 293.241636146
0.0045 -0.0245 293.284651603
0.0045 -0.0235 293.663569857
0.0045 -0.0225 294.833500645
0.0045 -0.0215 295.970618654
0.0045 -0.0205 298.586174922
0.0045 -0.0195 301.731660447
0.0045 -0.0185 304.056364891
0.0045 -0.0175 306.304725403
0.0045 -0.0165 308.553085915
0.0045 -0.0155 309.797013868
0.0045 -0.0145 310.017442464
0.0045 -0.0135 310.306602062
0.0045 -0.0125 310.453106022
0.0045 -0.0115 310.427399594
0.0045 -0.0105 310.459020273
0.0045 -0.0095 310.387037904
0.0045 -0.0085 310.313926037
0.0045 -0.0075 310.25889305
0.0045 -0.0065 310.183965831
0.0045 -0.0055 310.109038612
0.0045 -0.0045 310.04030735
0.0045 -0.0035 309.984591343
0.0045 -0.0025 309.928875337
0.0045 -0.0015 309.871087873
0.0045 -0.0005 309.823197571
0.0045 0.0005 309.775307268
0.0045 0.0015 309.719452261
0.0045 0.0025 309.666791898
0.0045 0.0035 309.614205514
0.0045 0.0045 309.551829333
0.0045 0.0055 309.486262886
0.0045 0.0065 309.428506147
0.0045 0.0075 309.365228779
0.0045 0.0085 309.299417145
0.0045 0.0095 309.26020897
0.0045 0.0105 309.235523807
0.0045 0.0115 309.210838645
0.0045 0.0125 309.259078324
0.0045 0.0135 309.378685223
0.0045 0.0145 309.498292122
0.0045 0.0155 309.779818731
0.0045 0.0165 310.218756682
0.0045 0.0175 310.657694634
0.0045 0.0185 311.191746006
0.0045 0.0195 311.836945626
0.0045 0.0205 312.482145245
0.0045 0.0215 312.724480824
0.0045 0.0225 312.937422408
0.0045 0.0235 313.147287283
0.0045 0.0245 313.221701272
0.0045 0.0255 313.282330103
0.0045 0.0265 313.402913605
0.0045 0.0275 313.805940931
0.0045 0.0285 314.208968256
0.0045 0.0295 314.668678957
0.0045 0.0305 316.014997786
0.0045 0.0315 317.374753359
0.0055 -0.0315 293.70717309
0.0055 -0.0305 293.664408545
0.0055 -0.0295 293.588705363
0.0055 -0.0285 293.462628521
0.0055 -0.0275 293.344169085
0.0055 -0.0265 293.273250595
0.0055 -0.0255 293.221987007
0.0055 -0.0245 293.264600207
0.0055 -0.0235 293.732294352
0.0055 -0.0225 294.649515257
0.0055 -0.0215 296.645196559
0.0055 -0.0205 299.645022708
0.0055 -0.0195 302.887878758
0.0055 -0.0185 306.117096389
0.0055 -0.0175 308.319536187
0.0055 -0.0165 310.103816361
0.0055 -0.0155 310.192938563
0.0055 -0.0145 310.420388116
0.0055 -0.0135 310.533392208
0.0055 -0.0125 310.495410177
0.0055 -0.0115 310.469972896
0.0055 -0.0105 310.436542361
0.0055 -0.0095 310.375289649
0.0055 -0.0085 310.302171305
0.0055 -0.0075 310.28017623
0.0055 -0.0065 310.218241037
0.0055 -0.0055 310.143314403
0.0055 -0.0045 310.156416699
0.0055 -0.0035 310.102904725
0.0055 -0.0025 310.052394932
0.0055 -0.0015 310.058772811
0.0055 -0.0005 310.011211269
0.0055 0.0005 309.969889847
0.0055 0.0015 309.940579768
0.0055 0.0025 309.888719226
0.0055 0.0035 309.829747309
0.0055 0.0045 309.762090339
0.0055 0.0055 309.697911074
0.0055 0.0065 309.593993433
0.0055 0.0075 309.498050945
0.0055 0.0085 309.434081142
0.0055 0.0095 309.291579852
0.0055 0.0105 309.221882327
0.0055 0.0115 309.199143841
0.0055 0.0125 309.072375314
0.0055 0.0135 309.145836603
0.0055 0.0145 309.26551259
0.0055 0.0155 309.269326738
0.0055 0.0165 309.688032659
0.0055 0.0175 310.121229279
0.0055 0.0185 310.56024074
0.0055 0.0195 311.210295151
0.0055 0.0205 311.976338934
0.0055 0.0215 312.712006172
0.0055 0.0225 312.926442354
0.0055 0.0235 313.233650464
0.0055 0.0245 313.464175752
0.0055 0.0255 313.530188459
0.0055 0.0265 313.584621101
0.0055 0.0275 313.825271221
0.0055 0.0285 314.230030389
0.0055 0.0295 314.765563406
0.0055 0.0305 315.905366135
0.0055 0.0315 317.076988947
0.0065 -0.0315 293.71056698
0.0065 -0.0305 293.669211324
0.0065 -0.0295 293.599574007
0.0065 -0.0285 293.470223017
0.0065 -0.0275 293.341561525
0.0065 -0.0265 293.286552416
0.0065 -0.0255 293.221164524
0.0065 -0.0245 293.446463366
0.0065 -0.0235 293.955773127
0.0065 -0.0225 294.864677505
0.0065 -0.0215 297.705947231
0.0065 -0.0205 300.569409506
0.0065 -0.0195 303.803306715
0.0065 -0.0185 307.031658694
0.0065 -0.0175 309.852298932
0.0065 -0.0165 310.376326535
0.0065 -0.0155 310.419553989
0.0065 -0.0145 310.584051051
0.0065 -0.0135 310.536696888
0.0065 -0.0125 310.48703728
0.0065 -0.0115 310.456089042
0.0065 -0.0105 310.417127574
0.0065 -0.0095 310.37656658
0.0065 -0.0085 310.327492628
0.0065 -0.0075 310.322081866
0.0065 -0.0065 310.302158583
0.0065 -0.0055 310.276995673
0.0065 -0.0045 310.298205313
0.0065 -0.0035 310.291167367
0.0065 -0.0025 310.282795538
0.0065 -0.0015 310.297131587
0.0065 -0.0005 310.279095788
0.0065 0.0005 310.254058427
0.0065 0.0015 310.233552253
0.0065 0.0025 310.19195028
0.0065 0.0035 310.121919494
0.0065 0.0045 310.051672477
0.0065 0.0055 309.975924156
0.0065 0.0065 309.838416708
0.0065 0.0075 309.700909261
0.0065 0.0085 309.599851394
0.0065 0.0095 309.422957956
0.0065 0.0105 309.256767642
0.0065 0.0115 309.179616591
0.0065 0.0125 309.034398383
0.0065 0.0135 308.939263425
0.0065 0.0145 308.989556485
0.0065 0.0155 308.993370633
0.0065 0.0165 309.135396482
0.0065 0.0175 309.552125279
0.0065 0.0185 309.962775096
0.0065 0.0195 310.491081668
0.0065 0.0205 311.455007308
0.0065 0.0215 312.42458505
0.0065 0.0225 312.893689054
0.0065 0.0235 313.296497264
0.0065 0.0245 313.699305475
0.0065 0.0255 313.779581498
0.0065 0.0265 313.828190144
0.0065 0.0275 313.87679879
0.0065 0.0285 314.365923825
0.0065 0.0295 314.901456842
0.0065 0.0305 315.988520543
0.0065 0.0315 317.170103949
0.0075 -0.0315 293.711564212
0.0075 -0.0305 293.671171271
0.0075 -0.0295 293.598112666
0.0075 -0.0285 293.462568858
0.0075 -0.0275 293.326626792
0.0075 -0.0265 293.271617683
0.0075 -0.0255 293.237637021
0.0075 -0.0245 293.602539461
0.0075 -0.0235 294.088673812
0.0075 -0.0225 295.29177314
0.0075 -0.0215 298.302468675
0.0075 -0.0205 301.530233848
0.0075 -0.0195 304.94466231
0.0075 -0.0185 308.202320454
0.0075 -0.0175 310.47281872
0.0075 -0.0165 310.549768079
0.0075 -0.0155 310.596717812
0.0075 -0.0145 310.611559214
0.0075 -0.0135 310.56179522
0.0075 -0.0125 310.512031226
0.0075 -0.0115 310.516842132
0.0075 -0.0105 310.47801847
0.0075 -0.0095 310.439194808
0.0075 -0.0085 310.508442548
0.0075 -0.0075 310.503112814
0.0075 -0.0065 310.524384304
0.0075 -0.0055 310.622314016
0.0075 -0.0045 310.64343904
0.0075 -0.0035 310.719266095
0.0075 -0.0025 310.782350792
0.0075 -0.0015 310.797039415
0.0075 -0.0005 310.864291249
0.0075 0.0005 310.85830781
0.0075 0.0015 310.839316889
0.0075 0.0025 310.814391507
0.0075 0.0035 310.747212062
0.0075 0.0045 310.680032616
0.0075 0.0055 310.520931697
0.0075 0.0065 310.387575818
0.0075 0.0075 310.254219939
0.0075 0.0085 309.985901892
0.0075 0.0095 309.813690003
0.0075 0.0105 309.632236178
0.0075 0.0115 309.339157059
0.0075 0.0125 309.198777738
0.0075 0.0135 309.016607421
0.0075 0.0145 308.858277989
0.0075 0.0155 308.865960023
0.0075 0.0165 308.816972154
0.0075 0.0175 309.04373913
0.0075 0.0185 309.455443839
0.0075 0.0195 309.761497551
0.0075 0.0205 310.661473886
0.0075 0.0215 311.641688464
0.0075 0.0225 312.653515713
0.0075 0.0235 313.11833361
0.0075 0.0245 313.583151508
0.0075 0.0255 314.004155454
0.0075 0.0265 314.038887881
0.0075 0.0275 314.073620309
0.0075 0.0285 314.562099078
0.0075 0.0295 315.060535411
0.0075 0.0305 316.127138827
0.0075 0.0315 317.332150439
0.0085 -0.0315 293.708414784
0.0085 -0.0305 293.643151432
0.0085 -0.0295 293.564385714
0.0085 -0.0285 293.440984999
0.0085 -0.0275 293.315955394
0.0085 -0.0265 293.296947789
0.0085 -0.0255 293.291941779
0.0085 -0.0245 293.629734237
0.0085 -0.0235 294.196459372
0.0085 -0.0225 295.739773692
0.0085 -0.0215 298.960650729
0.0085 -0.0205 302.398125538
0.0085 -0.0195 306.40944459
0.0085 -0.0185 309.709364343
0.0085 -0.0175 310.439048887
0.0085 -0.0165 310.606430182
0.0085 -0.0155 310.645916796
0.0085 -0.0145 310.642213091
0.0085 -0.0135 310.616100232
0.0085 -0.0125 310.604371242
0.0085 -0.0115 310.656643509
0.0085 -0.0105 310.647370775
0.0085 -0.0095 310.709785172
0.0085 -0.0085 310.852667505
0.0085 -0.0075 310.870996127
0.0085 -0.0065 311.025567864
0.0085 -0.0055 311.240838147
0.0085 -0.0045 311.261963327
0.0085 -0.0035 311.456428926
0.0085 -0.0025 311.642878377
0.0085 -0.0015 311.661950277
0.0085 -0.0005 311.797645237
0.0085 0.0005 311.885878527
0.0085 0.0015 311.865830186
0.0085 0.0025 311.841295682
0.0085 0.0035 311.797606051
0.0085 0.0045 311.680796448
0.0085 0.0055 311.468714757
0.0085 0.0065 311.302262326
0.0085 0.0075 311.063343731
0.0085 0.0085 310.714480899
0.0085 0.0095 310.488627934
0.0085 0.0105 310.164863385
0.0085 0.0115 309.752938374
0.0085 0.0125 309.558192851
0.0085 0.0135 309.248465448
0.0085 0.0145 308.889949694
0.0085 0.0155 308.860197799
0.0085 0.0165 308.721630114
0.0085 0.0175 308.580436561
0.0085 0.0185 308.963797021
0.0085 0.0195 309.19241214
0.0085 0.0205 309.657722438
0.0085 0.0215 310.737261212
0.0085 0.0225 311.941085236
0.0085 0.0235 312.561664962
0.0085 0.0245 313.178224399
0.0085 0.0255 313.688796769
0.0085 0.0265 314.098994366
0.0085 0.0275 314.295376012
0.0085 0.0285 314.797611546
0.0085 0.0295 315.303453852
0.0085 0.0305 316.343191748
0.0085 0.0315 317.500053313
0.0095 -0.0315 293.68186108
0.0095 -0.0305 293.607679064
0.0095 -0.0295 293.530658763
0.0095 -0.0285 293.41436259
0.0095 -0.0275 293.315040445
0.0095 -0.0265 293.33186157
0.0095 -0.0255 293.346246538
0.0095 -0.0245 293.656929013
0.0095 -0.0235 294.435336099
0.0095 -0.0225 296.033386667
0.0095 -0.0215 299.576677377
0.0095 -0.0205 303.266017229
0.0095 -0.0195 307.385536057
0.0095 -0.0185 310.226011335
0.0095 -0.0175 310.423710032
0.0095 -0.0165 310.621408729
0.0095 -0.0155 310.677360539
0.0095 -0.0145 310.674330939
0.0095 -0.0135 310.671301339
0.0095 -0.0125 310.731717679
0.0095 -0.0115 310.784919469
0.0095 -0.0105 310.869983237
0.0095 -0.0095 311.013938148
0.0095 -0.0085 311.157893059
0.0095 -0.0075 311.352047915
0.0095 -0.0065 311.566699954
0.0095 -0.0055 311.781351992
0.0095 -0.0045 312.026800866
0.0095 -0.0035 312.24528998
0.0095 -0.0025 312.463779094
0.0095 -0.0015 312.657546866
0.0095 -0.0005 312.794400333
0.0095 0.0005 312.931253799
0.0095 0.0015 312.961644239
0.0095 0.0025 312.940221817
0.0095 0.0035 312.918799394
0.0095 0.0045 312.726953787
0.0095 0.0055 312.520174687
0.0095 0.0065 312.289893087
0.0095 0.0075 311.942451989
0.0095 0.0085 311.600455981
0.0095 0.0095 311.200365817
0.0095 0.0105 310.796641303
0.0095 0.0115 310.392916788
0.0095 0.0125 309.92706433
0.0095 0.0135 309.580447686
0.0095 0.0145 309.233831042
0.0095 0.0155 308.845946365
0.0095 0.0165 308.708135245
0.0095 0.0175 308.570324126
0.0095 0.0185 308.484183466
0.0095 0.0195 308.712962157
0.0095 0.0205 308.925404704
0.0095 0.0215 309.760999055
0.0095 0.0225 310.944593993
0.0095 0.0235 312.08689943
0.0095 0.0245 312.8057816
0.0095 0.0255 313.31427474
0.0095 0.0265 313.792257034
0.0095 0.0275 314.494018527
0.0095 0.0285 315.040529988
0.0095 0.0295 315.546372294
0.0095 0.0305 316.585400255
0.0095 0.0315 317.718919964
0.0105 -0.0315 293.665049158
0.0105 -0.0305 293.588784264
0.0105 -0.0295 293.507163998
0.0105 -0.0285 293.416782605
0.0105 -0.0275 293.317460459
0.0105 -0.0265 293.328195559
0.0105 -0.0255 293.380022569
0.0105 -0.0245 294.007293127
0.0105 -0.0235 294.96735283
0.0105 -0.0225 296.028432378
0.0105 -0.0215 299.828305876
0.0105 -0.0205 305.164554477
0.0105 -0.0195 309.184588341
0.0105 -0.0185 310.22331321
0.0105 -0.0175 310.56181246
0.0105 -0.0165 310.721329064
0.0105 -0.0155 310.804120867
0.0105 -0.0145 310.801091267
0.0105 -0.0135 310.910785929
0.0105 -0.0125 311.05801916
0.0105 -0.0115 311.111220949
0.0105 -0.0105 311.398428331
0.0105 -0.0095 311.655617076
0.0105 -0.0085 311.799571987
0.0105 -0.0075 312.284414316
0.0105 -0.0065 312.608430025
0.0105 -0.0055 312.851257919
0.0105 -0.0045 313.400854638
0.0105 -0.0035 313.690682115
0.0105 -0.0025 313.962804819
0.0105 -0.0015 314.405193696
0.0105 -0.0005 314.561220688
0.0105 0.0005 314.714254984
0.0105 0.0015 314.875922037
0.0105 0.0025 314.854499615
0.0105 0.0035 314.754129716
0.0105 0.0045 314.578428099
0.0105 0.0055 314.371648999
0.0105 0.0065 313.980952008
0.0105 0.0075 313.550050276
0.0105 0.0085 313.208054268
0.0105 0.0095 312.586596829
0.0105 0.0105 312.025170568
0.0105 0.0115 311.621446053
0.0105 0.0125 310.881889303
0.0105 0.0135 310.334435535
0.0105 0.0145 309.960638645
0.0105 0.0155 309.286113705
0.0105 0.0165 308.918217108
0.0105 0.0175 308.726290586
0.0105 0.0185 308.414576692
0.0105 0.0195 308.433083533
0.0105 0.0205 308.541969729
0.0105 0.0215 308.58193435
0.0105 0.0225 309.749171737
0.0105 0.0235 310.875179647
0.0105 0.0245 311.993685008
0.0105 0.0255 313.251142641
0.0105 0.0265 313.972317025
0.0105 0.0275 314.667212354
0.0105 0.0285 315.21431379
0.0105 0.0295 315.766419734
0.0105 0.0305 316.785663473
0.0105 0.0315 317.909647961
0.0115 -0.0315 293.646109199
0.0115 -0.0305 293.562642407
0.0115 -0.0295 293.479519351
0.0115 -0.0285 293.398155568
0.0115 -0.0275 293.316791786
0.0115 -0.0265 293.402007643
0.0115 -0.0255 293.531246017
0.0115 -0.0245 294.113387637
0.0115 -0.0235 295.2279236
0.0115 -0.0225 296.342459563
0.0115 -0.0215 301.061982393
0.0115 -0.0205 306.295479979
0.0115 -0.0195 309.077346413
0.0115 -0.0185 310.066440667
0.0115 -0.0175 310.698855768
0.0115 -0.0165 310.792988164
0.0115 -0.0155 310.887120559
0.0115 -0.0145 310.964030418
0.0115 -0.0135 311.156579229
0.0115 -0.0125 311.349128041
0.0115 -0.0115 311.550698136
0.0115 -0.0105 311.910103901
0.0115 -0.0095 312.269509667
0.0115 -0.0085 312.639124166
0.0115 -0.0075 313.147099336
0.0115 -0.0065 313.650160097
0.0115 -0.0055 314.094472983
0.0115 -0.0045 314.644069703
0.0115 -0.0035 315.13607425
0.0115 -0.0025 315.542873667
0.0115 -0.0015 315.985262545
0.0115 -0.0005 316.328041044
0.0115 0.0005 316.505835134
0.0115 0.0015 316.683909191
0.0115 0.0025 316.748263962
0.0115 0.0035 316.581046863
0.0115 0.0045 316.413829765
0.0115 0.0055 316.147070913
0.0115 0.0065 315.672010928
0.0115 0.0075 315.196950944
0.0115 0.0085 314.673032784
0.0115 0.0095 313.991561321
0.0115 0.0105 313.310089858
0.0115 0.0115 312.658689028
0.0115 0.0125 311.902259185
0.0115 0.0135 311.145829343
0.0115 0.0145 310.531526695
0.0115 0.0155 309.857001756
0.0115 0.0165 309.182476816
0.0115 0.0175 308.85147363
0.0115 0.0185 308.559274906
0.0115 0.0195 308.227865322
0.0115 0.0205 308.208138856
0.0115 0.0215 308.211542805
0.0115 0.0225 308.527787673
0.0115 0.0235 309.582762873
0.0115 0.0245 310.637738072
0.0115 0.0255 312.041954444
0.0115 0.0265 313.676570807
0.0115 0.0275 314.840406181
0.0115 0.0285 315.403193568
0.0115 0.0295 315.967341898
0.0115 0.0305 316.991007094
0.0115 0.0315 318.10356168
0.0125 -0.0315 293.627143816
0.0125 -0.0305 293.535029121
0.0125 -0.0295 293.451874704
0.0125 -0.0285 293.384509432
0.0125 -0.0275 293.347177312
0.0125 -0.0265 293.495508124
0.0125 -0.0255 293.682469464
0.0125 -0.0245 294.219482146
0.0125 -0.0235 295.468169996
0.0125 -0.0225 296.806351172
0.0125 -0.0215 301.68289301
0.0125 -0.0205 306.897497714
0.0125 -0.0195 309.231673246
0.0125 -0.0185 310.164530723
0.0125 -0.0175 310.848752112
0.0125 -0.0165 310.963547703
0.0125 -0.0155 311.066958018
0.0125 -0.0145 311.347498968
0.0125 -0.0135 311.539392009
0.0125 -0.0125 311.731285051
0.0125 -0.0115 312.292551491
0.0125 -0.0105 312.657661836
0.0125 -0.0095 313.088601769
0.0125 -0.0085 313.848768601
0.0125 -0.0075 314.356297409
0.0125 -0.0065 314.993243605
0.0125 -0.0055 315.791646074
0.0125 -0.0045 316.340923764
0.0125 -0.0035 317.031067493
0.0125 -0.0025 317.659980263
0.0125 -0.0015 318.102373238
0.0125 -0.0005 318.600529876
0.0125 0.0005 318.883274427
0.0125 0.0015 319.062962041
0.0125 0.0025 319.160570684
0.0125 0.0035 319.032884733
0.0125 0.0045 318.869897769
0.0125 0.0055 318.47252291
0.0125 0.0065 318.005225933
0.0125 0.0075 317.529846443
0.0125 0.0085 316.689143905
0.0125 0.0095 316.014407829
0.0125 0.0105 315.275941917
0.0125 0.0115 314.219712196
0.0125 0.0125 313.469505241
0.0125 0.0135 312.616286292
0.0125 0.0145 311.552506248
0.0125 0.0155 310.909680039
0.0125 0.0165 310.120560186
0.0125 0.0175 309.193225133
0.0125 0.0185 308.901026408
0.0125 0.0195 308.448534503
0.0125 0.0205 308.207008901
0.0125 0.0215 308.167288089
0.0125 0.0225 308.110983827
0.0125 0.0235 308.474939524
0.0125 0.0245 309.281791137
0.0125 0.0255 310.70929319
0.0125 0.0265 312.280376537
0.0125 0.0275 313.831136826
0.0125 0.0285 315.434594988
0.0125 0.0295 316.168264062
0.0125 0.0305 317.200282762
0.0125 0.0315 318.104250172
0.0135 -0.0315 293.614777145
0.0135 -0.0305 293.522271097
0.0135 -0.0295 293.447117061
0.0135 -0.0285 293.424543456
0.0135 -0.0275 293.387211335
0.0135 -0.0265 293.530910337
0.0135 -0.0255 293.746295276
0.0135 -0.0245 294.514584526
0.0135 -0.0235 295.946353529
0.0135 -0.0225 297.284534705
0.0135 -0.0215 302.357558685
0.0135 -0.0205 307.510740489
0.0135 -0.0195 309.433022724
0.0135 -0.0185 310.400238777
0.0135 -0.0175 311.02748794
0.0135 -0.0165 311.191596987
0.0135 -0.0155 311.38872553
0.0135 -0.0145 311.726675272
0.0135 -0.0135 311.985107438
0.0135 -0.0125 312.406061323
0.0135 -0.0115 313.013153918
0.0135 -0.0105 313.50279259
0.0135 -0.0095 314.216554602
0.0135 -0.0085 315.06247133
0.0135 -0.0075 315.695031638
0.0135 -0.0065 316.60492816
0.0135 -0.0055 317.572241983
0.0135 -0.0045 318.223041884
0.0135 -0.0035 319.090701626
0.0135 -0.0025 319.958361369
0.0135 -0.0015 320.441099157
0.0135 -0.0005 320.977369608
0.0135 0.0005 321.479937535
0.0135 0.0015 321.622050821
0.0135 0.0025 321.690775758
0.0135 0.0035 321.707032866
0.0135 0.0045 321.416878912
0.0135 0.0055 320.987778817
0.0135 0.0065 320.545166016
0.0135 0.0075 319.839056097
0.0135 0.0085 318.984621966
0.0135 0.0095 318.210673106
0.0135 0.0105 317.205128917
0.0135 0.0115 316.089077708
0.0135 0.0125 315.167116425
0.0135 0.0135 314.051318713
0.0135 0.0145 312.866261783
0.0135 0.0155 312.001360396
0.0135 0.0165 311.022517188
0.0135 0.0175 309.98364634
0.0135 0.0185 309.171998776
0.0135 0.0195 308.701764935
0.0135 0.0205 308.219683397
0.0135 0.0215 307.996722981
0.0135 0.0225 307.909727827
0.0135 0.0235 308.273683524
0.0135 0.0245 308.568197168
0.0135 0.0255 309.252167682
0.0135 0.0265 310.776103549
0.0135 0.0275 312.328242896
0.0135 0.0285 313.931701059
0.0135 0.0295 315.654400328
0.0135 0.0305 317.057136439
0.0135 0.0315 317.937683978
0.0145 -0.0315 293.606234969
0.0145 -0.0305 293.522644104
0.0145 -0.0295 293.448327831
0.0145 -0.0285 293.434376303
0.0145 -0.0275 293.420424775
0.0145 -0.0265 293.624726838
0.0145 -0.0255 293.898996068
0.0145 -0.0245 294.664158026
0.0145 -0.0235 296.202700719
0.0145 -0.0225 297.843177921
0.0145 -0.0215 302.799402057
0.0145 -0.0205 307.772045808
0.0145 -0.0195 309.723192933
0.0145 -0.0185 310.645046447
0.0145 -0.0175 311.213755833
0.0145 -0.0165 311.445196327
0.0145 -0.0155 311.736232658
0.0145 -0.0145 312.086058255
0.0145 -0.0135 312.505744237
0.0145 -0.0125 313.131711364
0.0145 -0.0115 313.757678491
0.0145 -0.0105 314.552509507
0.0145 -0.0095 315.455416727
0.0145 -0.0085 316.30107414
0.0145 -0.0075 317.412420227
0.0145 -0.0065 318.38069228
0.0145 -0.0055 319.348964332
0.0145 -0.0045 320.472244527
0.0145 -0.0035 321.3388936
0.0145 -0.0025 322.205542673
0.0145 -0.0015 323.001350815
0.0145 -0.0005 323.537370178
0.0145 0.0005 324.073389542
0.0145 0.0015 324.334622564
0.0145 0.0025 324.404603015
0.0145 0.0035 324.45778724
0.0145 0.0045 324.14001648
0.0145 0.0055 323.714685494
0.0145 0.0065 323.223009907
0.0145 0.0075 322.40573097
0.0145 0.0085 321.557329474
0.0145 0.0095 320.558127544
0.0145 0.0105 319.415510706
0.0145 0.0115 318.30129092
0.0145 0.0125 316.964903163
0.0145 0.0135 315.743087501
0.0145 0.0145 314.534668365
0.0145 0.0155 313.170121347
0.0145 0.0165 312.05733427
0.0145 0.0175 311.071332725
0.0145 0.0185 309.900564005
0.0145 0.0195 309.19507787
0.0145 0.0205 308.697029769
0.0145 0.0215 308.161650843
0.0145 0.0225 307.702467427
0.0145 0.0235 307.874440713
0.0145 0.0245 308.046413999
0.0145 0.0255 308.731292291
0.0145 0.0265 309.671322984
0.0145 0.0275 310.866241478
0.0145 0.0285 312.694045396
0.0145 0.0295 314.521849313
0.0145 0.0305 316.042942288
0.0145 0.0315 317.517901025
0.0155 -0.0315 293.602062629
0.0155 -0.0305 293.52372923
0.0155 -0.0295 293.449538601
0.0155 -0.0285 293.446601508
0.0155 -0.0275 293.461955092
0.0155 -0.0265 293.718492896
0.0155 -0.0255 294.051696861
0.0155 -0.0245 294.813731525
0.0155 -0.0235 296.518732713
0.0155 -0.0225 298.363760614
0.0155 -0.0215 303.154840088
0.0155 -0.0205 308.033351127
0.0155 -0.0195 310.036238429
0.0155 -0.0185 310.894841136
0.0155 -0.0175 311.488596754
0.0155 -0.0165 311.778542552
0.0155 -0.0155 312.061733617
0.0155 -0.0145 312.549011831
0.0155 -0.0135 313.180639892
0.0155 -0.0125 314.0096863
0.0155 -0.0115 314.635653427
0.0155 -0.0105 315.730304549
0.0155 -0.0095 316.87474872
0.0155 -0.0085 317.746290527
0.0155 -0.0075 319.175903644
0.0155 -0.0065 320.422077546
0.0155 -0.0055 321.484665917
0.0155 -0.0045 322.821718532
0.0155 -0.0035 323.891506664
0.0155 -0.0025 324.792514696
0.0155 -0.0015 325.744621788
0.0155 -0.0005 326.397820513
0.0155 0.0005 326.872463517
0.0155 0.0015 327.294570515
0.0155 0.0025 327.414812567
0.0155 0.0035 327.334333657
0.0155 0.0045 327.180565519
0.0155 0.0055 326.7608456
0.0155 0.0065 326.083197791
0.0155 0.0075 325.334715881
0.0155 0.0085 324.486314385
0.0155 0.0095 323.230643046
0.0155 0.0105 321.988021983
0.0155 0.0115 320.822025952
0.0155 0.0125 319.227751386
0.0155 0.0135 317.820794745
0.0155 0.0145 316.493493201
0.0155 0.0155 314.884716699
0.0155 0.0165 313.481250966
0.0155 0.0175 312.145043391
0.0155 0.0185 310.927711294
0.0155 0.0195 309.710379197
0.0155 0.0205 309.163103624
0.0155 0.0215 308.516358743
0.0155 0.0225 307.89693039
0.0155 0.0235 307.604991325
0.0155 0.0245 307.52463083
0.0155 0.0255 308.2104169
0.0155 0.0265 308.900556618
0.0155 0.0275 309.837234555
0.0155 0.0285 311.585932781
0.0155 0.0295 313.389298298
0.0155 0.0305 314.905362089
0.0155 0.0315 316.328596858
0.0165 -0.0315 293.594863342
0.0165 -0.0305 293.516529943
0.0165 -0.0295 293.465931182
0.0165 -0.0285 293.494544092
0.0165 -0.0275 293.509897677
0.0165 -0.0265 293.766769563
0.0165 -0.0255 294.124374459
0.0165 -0.0245 295.140727564
0.0165 -0.0235 297.033903522
0.0165 -0.0225 298.884343307
0.0165 -0.0215 303.675422781
0.0165 -0.0205 308.358658692
0.0165 -0.0195 310.241463867
0.0165 -0.0185 311.087744453
0.0165 -0.0175 311.705856895
0.0165 -0.0165 312.024384601
0.0165 -0.0155 312.55122695
0.0165 -0.0145 313.178404326
0.0165 -0.0135 313.849460955