% Model:              SIMBench260525.mph
% Version:            COMSOL 6.2.0.339
% Date:               May 27 2026, 17:29
% Dimension:          2
% Nodes:              4096
% Expressions:        1
% Description:        温度
% Length unit:        m
% x                       y                        T (K)
5.0E-4                    -0.0315                  395.4443127150382
5.0E-4                    -0.0305                  393.6212294312113
5.0E-4                    -0.0295                  391.77998616237727
5.0E-4                    -0.0285                  388.2817488732986
5.0E-4                    -0.0275                  384.0617503186787
5.0E-4                    -0.0265                  379.8417517640589
5.0E-4                    -0.0255                  375.10565285892403
5.0E-4                    -0.0245                  370.9490056594074
5.0E-4                    -0.0235                  366.79235845989075
5.0E-4                    -0.0225                  363.56267950666347
5.0E-4                    -0.0215                  360.97867908172975
5.0E-4                    -0.0205                  358.39467865679603
5.0E-4                    -0.0195                  356.83532164731787
5.0E-4                    -0.0185                  355.3184635546625
5.0E-4                    -0.0175                  353.8016054620072
5.0E-4                    -0.0165                  352.93114160247404
5.0E-4                    -0.0155                  351.77746190620076
5.0E-4                    -0.0145                  350.62378220992736
5.0E-4                    -0.0135                  350.05767829720105
5.0E-4                    -0.0125                  349.14046451732247
5.0E-4                    -0.0115                  348.22325073744383
5.0E-4                    -0.0105                  347.6766752693245
5.0E-4                    -0.0095                  346.83772711936365
5.0E-4                    -0.0085                  345.9987789694027
5.0E-4                    -0.0075                  345.01983354594785
5.0E-4                    -0.0065                  343.7726364081558
5.0E-4                    -0.0055                  342.5254392703638
5.0E-4                    -0.0045                  340.20953062886116
5.0E-4                    -0.0035                  336.01035720058087
5.0E-4                    -0.0025                  331.81118377230064
5.0E-4                    -0.0015                  326.68160732360866
5.0E-4                    -5.0E-4                  317.68678279574783
5.0E-4                    5.0E-4                   308.69195826788706
5.0E-4                    0.0015                   302.95274293466775
5.0E-4                    0.0025                   301.65492393663135
5.0E-4                    0.0035                   300.3571049385949
5.0E-4                    0.0045                   296.73501382670156
5.0E-4                    0.0055                   295.0700650893302
5.0E-4                    0.0065                   293.50634357284764
5.0E-4                    0.0075                   293.10781090159105
5.0E-4                    0.0085                   293.10386276684744
5.0E-4                    0.0095                   293.40441451422566
5.0E-4                    0.0105                   294.5735195075008
5.0E-4                    0.0115                   295.81088251188
5.0E-4                    0.0125                   298.60846492130975
5.0E-4                    0.0135                   300.2297821318732
5.0E-4                    0.0145                   301.8510993424367
5.0E-4                    0.0155                   307.5562201468349
5.0E-4                    0.0165                   315.48017595442974
5.0E-4                    0.0175                   322.99611658009815
5.0E-4                    0.0185                   327.66565006807787
5.0E-4                    0.0195                   333.4887218979917
5.0E-4                    0.0205                   338.8046996239019
5.0E-4                    0.0215                   341.40522880190827
5.0E-4                    0.0225                   343.3818401592963
5.0E-4                    0.0235                   345.6048069190809
5.0E-4                    0.0245                   347.8834929614216
5.0E-4                    0.0255                   350.09647327255686
5.0E-4                    0.0265                   352.6305391632606
5.0E-4                    0.0275                   355.85549192324294
5.0E-4                    0.0285                   359.1032806106643
5.0E-4                    0.0295                   362.4519994785379
5.0E-4                    0.0305                   364.62545539716905
5.0E-4                    0.0315                   366.7989113158001
0.0015                    -0.0315                  394.6690228111155
0.0015                    -0.0305                  393.345465261948
0.0015                    -0.0295                  390.96816612263626
0.0015                    -0.0285                  386.99429668952223
0.0015                    -0.0275                  382.90523334973295
0.0015                    -0.0265                  378.24900047209417
0.0015                    -0.0255                  373.23012181626973
0.0015                    -0.0245                  368.6969366343284
0.0015                    -0.0235                  365.0416477274084
0.0015                    -0.0225                  361.8275917380958
0.0015                    -0.0215                  359.00789977464643
0.0015                    -0.0205                  357.03779204529997
0.0015                    -0.0195                  355.75270724284513
0.0015                    -0.0185                  354.329828746212
0.0015                    -0.0175                  353.23680647315507
0.0015                    -0.0165                  352.6386464142569
0.0015                    -0.0155                  351.7184371676126
0.0015                    -0.0145                  350.9639854289521
0.0015                    -0.0135                  350.6712845099048
0.0015                    -0.0125                  350.02012542943373
0.0015                    -0.0115                  349.3655153439528
0.0015                    -0.0105                  349.0127395646074
0.0015                    -0.0095                  348.38039902507563
0.0015                    -0.0085                  347.4966889246056
0.0015                    -0.0075                  346.55958175961064
0.0015                    -0.0065                  345.443562754711
0.0015                    -0.0055                  343.83605013454815
0.0015                    -0.0045                  341.7889080828247
0.0015                    -0.0035                  338.4958368302031
0.0015                    -0.0025                  334.29324898000243
0.0015                    -0.0015                  330.08646311063785
0.0015                    -5.0E-4                  323.1071074841272
0.0015                    5.0E-4                   315.34719861289136
0.0015                    0.0015                   309.1108848509667
0.0015                    0.0025                   305.8894614844696
0.0015                    0.0035                   302.7768086633839
0.0015                    0.0045                   297.6711044459112
0.0015                    0.0055                   295.0231881487897
0.0015                    0.0065                   293.9153536004061
0.0015                    0.0075                   293.02788619734474
0.0015                    0.0085                   293.05303856827544
0.0015                    0.0095                   293.71238978905035
0.0015                    0.0105                   294.5523081655825
0.0015                    0.0115                   296.66594107190895
0.0015                    0.0125                   300.4375842581828
0.0015                    0.0135                   302.9450553938717
0.0015                    0.0145                   306.33212418648964
0.0015                    0.0155                   311.1373715155122
0.0015                    0.0165                   318.2596639222002
0.0015                    0.0175                   323.08663581359826
0.0015                    0.0185                   326.64040209021914
0.0015                    0.0195                   332.2447239704638
0.0015                    0.0205                   336.25086266136026
0.0015                    0.0215                   339.8453839543919
0.0015                    0.0225                   341.8691552973746
0.0015                    0.0235                   344.4511845986581
0.0015                    0.0245                   346.91400338771683
0.0015                    0.0255                   349.31150759347236
0.0015                    0.0265                   352.0696008954672
0.0015                    0.0275                   355.0390123496744
0.0015                    0.0285                   358.3773940027567
0.0015                    0.0295                   362.02755892267425
0.0015                    0.0305                   364.778216733641
0.0015                    0.0315                   366.5601417215884
0.0025                    -0.0315                  393.89373290719277
0.0025                    -0.0305                  392.16525647295873
0.0025                    -0.0295                  389.57476464514286
0.0025                    -0.0285                  385.61446984149086
0.0025                    -0.0275                  381.22736814771866
0.0025                    -0.0265                  376.1737964291865
0.0025                    -0.0255                  371.2054728855496
0.0025                    -0.0245                  366.6318948334933
0.0025                    -0.0235                  363.4220687029579
0.0025                    -0.0225                  360.2130369341055
0.0025                    -0.0215                  357.28006095733843
0.0025                    -0.0205                  356.00658533036676
0.0025                    -0.0195                  354.7331097033951
0.0025                    -0.0185                  353.6151537842211
0.0025                    -0.0175                  353.04123051023873
0.0025                    -0.0165                  352.4583958567636
0.0025                    -0.0155                  352.0151236500285
0.0025                    -0.0145                  351.7656459985851
0.0025                    -0.0135                  351.481186177626
0.0025                    -0.0125                  351.2706377600582
0.0025                    -0.0115                  350.93849791920417
0.0025                    -0.0105                  350.5734261399293
0.0025                    -0.0095                  350.1342975445351
0.0025                    -0.0085                  349.18216503961446
0.0025                    -0.0075                  348.2387605524804
0.0025                    -0.0065                  347.0882974864118
0.0025                    -0.0055                  344.9899796297009
0.0025                    -0.0045                  342.943012515847
0.0025                    -0.0035                  340.69502762834503
0.0025                    -0.0025                  336.47828559252497
0.0025                    -0.0015                  332.27282037387454
0.0025                    -5.0E-4                  328.1274357286824
0.0025                    5.0E-4                   321.9847957499783
0.0025                    0.0015                   315.7548215878747
0.0025                    0.0025                   309.4534832030105
0.0025                    0.0035                   304.3201759230487
0.0025                    0.0045                   299.186868643087
0.0025                    0.0055                   295.15160845709596
0.0025                    0.0065                   294.24495184291794
0.0025                    0.0075                   293.33829522874
0.0025                    0.0085                   293.30136822676894
0.0025                    0.0095                   293.9588195493884
0.0025                    0.0105                   294.6162708720079
0.0025                    0.0115                   297.84554405475956
0.0025                    0.0125                   301.61548728826216
0.0025                    0.0135                   305.5143409056777
0.0025                    0.0145                   310.31691790028657
0.0025                    0.0155                   315.12413137659985
0.0025                    0.0165                   319.1509074593599
0.0025                    0.0175                   322.69231284525665
0.0025                    0.0185                   326.2337182311533
0.0025                    0.0195                   329.76780742288054
0.0025                    0.0205                   333.5143796189968
0.0025                    0.0215                   337.26095181511306
0.0025                    0.0225                   340.6329154109767
0.0025                    0.0235                   343.2094126174104
0.0025                    0.0245                   345.8725526534218
0.0025                    0.0255                   348.7988670068447
0.0025                    0.0265                   351.51603944536566
0.0025                    0.0275                   354.26675592966865
0.0025                    0.0285                   357.87639520743187
0.0025                    0.0295                   361.70419556977555
0.0025                    0.0305                   364.6245102701673
0.0025                    0.0315                   366.30815988803346
0.0035                    -0.0315                  392.3334612421103
0.0035                    -0.0305                  390.2256238950545
0.0035                    -0.0295                  388.12771596864604
0.0035                    -0.0285                  383.96006848257474
0.0035                    -0.0275                  378.54843407390774
0.0035                    -0.0265                  373.22653484759473
0.0035                    -0.0255                  368.2582113039579
0.0035                    -0.0245                  364.9379472031135
0.0035                    -0.0235                  361.71879080443324
0.0035                    -0.0225                  358.50975903558094
0.0035                    -0.0215                  357.19555385561586
0.0035                    -0.0205                  356.2193791885787
0.0035                    -0.0195                  354.9459035616071
0.0035                    -0.0185                  354.7951396989863
0.0035                    -0.0175                  354.74504082832306
0.0035                    -0.0165                  354.162206174848
0.0035                    -0.0155                  354.56333879578096
0.0035                    -0.0145                  354.9434271227211
0.0035                    -0.0135                  354.65896730176195
0.0035                    -0.0125                  354.8856543457131
0.0035                    -0.0115                  355.0226803635303
0.0035                    -0.0105                  354.6576085842555
0.0035                    -0.0095                  353.71199470288593
0.0035                    -0.0085                  352.630240983976
0.0035                    -0.0075                  351.686836496842
0.0035                    -0.0065                  348.9730874621611
0.0035                    -0.0055                  346.0487980805309
0.0035                    -0.0045                  344.001830966677
0.0035                    -0.0035                  340.1815529269231
0.0035                    -0.0025                  335.7669412383138
0.0035                    -0.0015                  331.5614760196634
0.0035                    -5.0E-4                  327.8941743680742
0.0035                    5.0E-4                   323.3526669492263
0.0035                    0.0015                   317.1226927871227
0.0035                    0.0025                   310.18077189920473
0.0035                    0.0035                   304.01552437571445
0.0035                    0.0045                   298.8822170957527
0.0035                    0.0055                   295.7058287073438
0.0035                    0.0065                   294.04499397233656
0.0035                    0.0075                   293.3319901897438
0.0035                    0.0085                   293.2432448596647
0.0035                    0.0095                   293.8332893729944
0.0035                    0.0105                   295.2720689849159
0.0035                    0.0115                   297.7121527216075
0.0035                    0.0125                   301.48209595511014
0.0035                    0.0135                   305.85671623462827
0.0035                    0.0145                   310.5197782053602
0.0035                    0.0155                   315.32699168167346
0.0035                    0.0165                   317.02942295991045
0.0035                    0.0175                   319.62894583803893
0.0035                    0.0185                   323.1234061024482
0.0035                    0.0195                   326.28827334433464
0.0035                    0.0205                   329.8799211842883
0.0035                    0.0215                   334.06296073028216
0.0035                    0.0225                   339.0238845979067
0.0035                    0.0235                   341.6107769309597
0.0035                    0.0245                   345.18226576752977
0.0035                    0.0255                   348.6463477930137
0.0035                    0.0265                   351.3635202315347
0.0035                    0.0275                   354.9131139538774
0.0035                    0.0285                   358.16926240139367
0.0035                    0.0295                   361.8485159316514
0.0035                    0.0305                   364.5493701790844
0.0035                    0.0315                   366.2940403949185
0.0045                    -0.0315                  391.0250012709692
0.0045                    -0.0305                  388.76159027892214
0.0045                    -0.0295                  386.4915766677571
0.0045                    -0.0285                  381.36892047657585
0.0045                    -0.0275                  375.93777886722046
0.0045                    -0.0265                  370.50663725786495
0.0045                    -0.0255                  366.46962115470285
0.0045                    -0.0245                  363.2439995727336
0.0045                    -0.0235                  360.0183779907643
0.0045                    -0.0225                  357.8486440861633
0.0045                    -0.0215                  357.089970514538
0.0045                    -0.0205                  356.3312969429126
0.0045                    -0.0195                  355.71214511091637
0.0045                    -0.0185                  355.97512561375163
0.0045                    -0.0175                  356.2381061165869
0.0045                    -0.0165                  356.3787697416149
0.0045                    -0.0155                  357.1115539415334
0.0045                    -0.0145                  357.8443381414518
0.0045                    -0.0135                  358.10496863873675
0.0045                    -0.0125                  358.50067093136806
0.0045                    -0.0115                  358.89637322399926
0.0045                    -0.0105                  358.4440757846744
0.0045                    -0.0095                  357.28969186123663
0.0045                    -0.0085                  356.13530793779887
0.0045                    -0.0075                  354.2551174032071
0.0045                    -0.0065                  350.8578774379104
0.0045                    -0.0055                  347.4606374726136
0.0045                    -0.0045                  344.1969719871276
0.0045                    -0.0035                  339.6680782255012
0.0045                    -0.0025                  335.1391844638747
0.0045                    -0.0015                  331.11184074190936
0.0045                    -5.0E-4                  327.6609130074659
0.0045                    5.0E-4                   324.2099852730224
0.0045                    0.0015                   318.08963262658466
0.0045                    0.0025                   310.95292962251773
0.0045                    0.0035                   303.8162266184508
0.0045                    0.0045                   299.8052315649026
0.0045                    0.0055                   296.6808856039873
0.0045                    0.0065                   293.8450361017551
0.0045                    0.0075                   293.62712716783005
0.0045                    0.0085                   293.5383818377509
0.0045                    0.0095                   293.85919760805785
0.0045                    0.0105                   296.0610328247399
0.0045                    0.0115                   298.26286804142194
0.0045                    0.0125                   301.6211965806922
0.0045                    0.0135                   306.19909156357875
0.0045                    0.0145                   310.77698654646537
0.0045                    0.0155                   313.7592300543809
0.0045                    0.0165                   315.20888482761825
0.0045                    0.0175                   316.65853960085553
0.0045                    0.0185                   319.82791692143917
0.0045                    0.0195                   322.9927841633256
0.0045                    0.0205                   326.24546274957976
0.0045                    0.0215                   331.1810026134384
0.0045                    0.0225                   336.1419264810629
0.0045                    0.0235                   340.4197002214228
0.0045                    0.0245                   344.4919788816378
0.0045                    0.0255                   348.5925990739395
0.0045                    0.0265                   352.20684874124436
0.0045                    0.0275                   355.8210984085494
0.0045                    0.0285                   359.05284219010514
0.0045                    0.0295                   362.2761089962075
0.0045                    0.0305                   364.6724943640348
0.0045                    0.0315                   366.6085619069647
0.0055                    -0.0315                  389.7165412998281
0.0055                    -0.0305                  387.40041699453093
0.0055                    -0.0295                  385.0799880120829
0.0055                    -0.0285                  379.5261284867172
0.0055                    -0.0275                  374.0706942072356
0.0055                    -0.0265                  369.0948612771448
0.0055                    -0.0255                  365.26001100363277
0.0055                    -0.0245                  361.9705589157377
0.0055                    -0.0235                  358.841994976918
0.0055                    -0.0225                  358.23129430475535
0.0055                    -0.0215                  357.4666907509584
0.0055                    -0.0205                  356.7020871971615
0.0055                    -0.0195                  357.4590862262164
0.0055                    -0.0185                  357.741916148424
0.0055                    -0.0175                  358.0606262161834
0.0055                    -0.0165                  359.51256228322785
0.0055                    -0.0155                  360.2513163585978
0.0055                    -0.0145                  361.00605989091855
0.0055                    -0.0135                  362.0125410620323
0.0055                    -0.0125                  362.4068170794344
0.0055                    -0.0115                  362.76621009937924
0.0055                    -0.0105                  361.63746287725434
0.0055                    -0.0095                  360.4869188661626
0.0055                    -0.0085                  359.33637485507097
0.0055                    -0.0075                  355.061180097743
0.0055                    -0.0065                  351.67263506648413
0.0055                    -0.0055                  348.2840900352253
0.0055                    -0.0045                  342.2750849945411
0.0055                    -0.0035                  337.748435170191
0.0055                    -0.0025                  333.22178534584094
0.0055                    -0.0015                  329.4131723195219
0.0055                    -5.0E-4                  325.9522767922941
0.0055                    5.0E-4                   322.50747187232713
0.0055                    0.0015                   318.23529255599556
0.0055                    0.0025                   311.0932410520336
0.0055                    0.0035                   304.29976631051807
0.0055                    0.0045                   299.62282961333375
0.0055                    0.0055                   296.47980784117533
0.0055                    0.0065                   294.1976687810693
0.0055                    0.0075                   293.6142473026545
0.0055                    0.0085                   293.51975849755
0.0055                    0.0095                   294.0769872272718
0.0055                    0.0105                   295.96503311582427
0.0055                    0.0115                   298.1580352828047
0.0055                    0.0125                   301.8848181532453
0.0055                    0.0135                   306.4465863719662
0.0055                    0.0145                   310.63582890720227
0.0055                    0.0155                   312.33480538142436
0.0055                    0.0165                   313.7875196835151
0.0055                    0.0175                   314.9871177910887
0.0055                    0.0185                   316.6110619704224
0.0055                    0.0195                   319.77708840756844
0.0055                    0.0205                   323.0403475827675
0.0055                    0.0215                   327.27456144958865
0.0055                    0.0225                   332.24377131908557
0.0055                    0.0235                   338.3235442005267
0.0055                    0.0245                   342.6395307476184
0.0055                    0.0255                   347.0636536958332
0.0055                    0.0265                   352.24679631336494
0.0055                    0.0275                   356.7131551727141
0.0055                    0.0285                   359.9487112342258
0.0055                    0.0295                   363.19271650753774
0.0055                    0.0305                   365.3132557156836
0.0055                    0.0315                   366.9277559367754
0.0065                    -0.0315                  388.4006948897998
0.0065                    -0.0305                  385.9888283388567
0.0065                    -0.0295                  383.4762619580946
0.0065                    -0.0285                  377.84041250162375
0.0065                    -0.0275                  372.204563045153
0.0065                    -0.0265                  368.20072204031607
0.0065                    -0.0255                  364.2952082069955
0.0065                    -0.0245                  360.77552645636376
0.0065                    -0.0235                  359.34569667888314
0.0065                    -0.0225                  358.77468724050857
0.0065                    -0.0215                  358.0965958007316
0.0065                    -0.0205                  358.3061261070847
0.0065                    -0.0195                  359.2348291562477
0.0065                    -0.0185                  359.7838043287654
0.0065                    -0.0175                  360.91282886387944
0.0065                    -0.0165                  362.4675002945974
0.0065                    -0.0155                  363.6152420569939
0.0065                    -0.0145                  364.59272937356695
0.0065                    -0.0135                  365.67085965756485
0.0065                    -0.0125                  366.4205838115578
0.0065                    -0.0115                  365.7958166037114
0.0065                    -0.0105                  364.6697051758873
0.0065                    -0.0095                  363.5315505727168
0.0065                    -0.0085                  360.30452781105504
0.0065                    -0.0075                  355.9035992176058
0.0065                    -0.0065                  352.01679801587187
0.0065                    -0.0055                  346.83322892546454
0.0065                    -0.0045                  340.5410286673873
0.0065                    -0.0035                  335.1811148082324
0.0065                    -0.0025                  331.06366837711676
0.0065                    -0.0015                  327.205456905707
0.0065                    -5.0E-4                  323.5816656730066
0.0065                    5.0E-4                   320.2615944477018
0.0065                    0.0015                   316.9981876956331
0.0065                    0.0025                   310.9709819949494
0.0065                    0.0035                   305.08158694011826
0.0065                    0.0045                   299.37594959282814
0.0065                    0.0055                   295.9909853051728
0.0065                    0.0065                   294.7361430621397
0.0065                    0.0075                   293.5043124144513
0.0065                    0.0085                   293.6884604645276
0.0065                    0.0095                   294.52885999037943
0.0065                    0.0105                   295.6412438378016
0.0065                    0.0115                   298.7200599798914