% Model:              SIMBench260525.mph
% Version:            COMSOL 6.2.0.339
% Date:               May 27 2026, 18:16
% Dimension:          2
% Nodes:              4096
% Expressions:        1
% Description:        温度
% Length unit:        m
% x                       y                        T (K)
5.0E-4                    -0.0315                  358.7764491978895
5.0E-4                    -0.0305                  357.04085034094226
5.0E-4                    -0.0295                  355.2988964850479
5.0E-4                    -0.0285                  352.17188683856716
5.0E-4                    -0.0275                  349.1165752226946
5.0E-4                    -0.0265                  346.0655535602303
5.0E-4                    -0.0255                  343.6195010628329
5.0E-4                    -0.0245                  341.5313382078793
5.0E-4                    -0.0235                  339.55424761370193
5.0E-4                    -0.0225                  338.4843164850939
5.0E-4                    -0.0215                  337.26202087935656
5.0E-4                    -0.0205                  336.18069744865966
5.0E-4                    -0.0195                  335.49949090278716
5.0E-4                    -0.0185                  334.6355261010371
5.0E-4                    -0.0175                  333.9249185096331
5.0E-4                    -0.0165                  333.3599212861583
5.0E-4                    -0.0155                  332.6523442504551
5.0E-4                    -0.0145                  332.03094988592306
5.0E-4                    -0.0135                  331.4009312966568
5.0E-4                    -0.0125                  330.71460219357203
5.0E-4                    -0.0115                  329.8914263050627
5.0E-4                    -0.0105                  329.00238499697264
5.0E-4                    -0.0095                  328.1340981128335
5.0E-4                    -0.0085                  326.6809260557331
5.0E-4                    -0.0075                  323.8722691524467
5.0E-4                    -0.0065                  320.99182967815483
5.0E-4                    -0.0055                  318.15206825712687
5.0E-4                    -0.0045                  311.5955728539293
5.0E-4                    -0.0035                  305.03907745073184
5.0E-4                    -0.0025                  300.3629090488526
5.0E-4                    -0.0015                  299.1140288078914
5.0E-4                    -5.0E-4                  297.8651485669301
5.0E-4                    5.0E-4                   295.4825779307501
5.0E-4                    0.0015                   294.39566575379195
5.0E-4                    0.0025                   293.38510253745153
5.0E-4                    0.0035                   293.1511528736177
5.0E-4                    0.0045                   293.13902278840584
5.0E-4                    0.0055                   293.1421896443571
5.0E-4                    0.0065                   293.1484430777376
5.0E-4                    0.0075                   293.1527276013626
5.0E-4                    0.0085                   293.15223258350005
5.0E-4                    0.0095                   293.1460400293937
5.0E-4                    0.0105                   293.1404111493967
5.0E-4                    0.0115                   293.1801594522337
5.0E-4                    0.0125                   293.25416379455413
5.0E-4                    0.0135                   293.83058964865484
5.0E-4                    0.0145                   295.99156074460967
5.0E-4                    0.0155                   298.28309579510096
5.0E-4                    0.0165                   303.48011319837514
5.0E-4                    0.0175                   310.8235387949433
5.0E-4                    0.0185                   317.7510607570631
5.0E-4                    0.0195                   322.4210611122548
5.0E-4                    0.0205                   327.3996091344102
5.0E-4                    0.0215                   331.62563569581977
5.0E-4                    0.0225                   335.36711490572304
5.0E-4                    0.0235                   339.14621272524346
5.0E-4                    0.0245                   342.6409982073995
5.0E-4                    0.0255                   344.8735270498172
5.0E-4                    0.0265                   347.27175464646774
5.0E-4                    0.0275                   350.38157431630873
5.0E-4                    0.0285                   353.34742434848636
5.0E-4                    0.0295                   356.5753782063976
5.0E-4                    0.0305                   358.65040430772336
5.0E-4                    0.0315                   360.67121222374135
0.0015                    -0.0315                  358.0429151575382
0.0015                    -0.0305                  356.65492999053896
0.0015                    -0.0295                  354.33844941788635
0.0015                    -0.0285                  350.7957114238925
0.0015                    -0.0275                  347.53175836793406
0.0015                    -0.0265                  344.7451114888583
0.0015                    -0.0255                  342.09176325045644
0.0015                    -0.0245                  339.85478027745046
0.0015                    -0.0235                  338.62375907742717
0.0015                    -0.0225                  337.68823094219726
0.0015                    -0.0215                  336.50591244711006
0.0015                    -0.0205                  335.9175069938745
0.0015                    -0.0195                  335.4687813551985
0.0015                    -0.0185                  334.624605113532
0.0015                    -0.0175                  334.2719528105005
0.0015                    -0.0165                  333.9550914134427
0.0015                    -0.0155                  333.2475143777395
0.0015                    -0.0145                  332.7767624113837
0.0015                    -0.0135                  332.27915616368205
0.0015                    -0.0125                  331.5709418820176
0.0015                    -0.0115                  330.5792408536016
0.0015                    -0.0105                  329.61503229462505
0.0015                    -0.0095                  328.57372082841584
0.0015                    -0.0085                  326.61806267521723
0.0015                    -0.0075                  324.3733260598931
0.0015                    -0.0065                  321.52835950722476
0.0015                    -0.0055                  318.7907825321797
0.0015                    -0.0045                  314.51729418629816
0.0015                    -0.0035                  308.6891151049712
0.0015                    -0.0025                  304.2743320412153
0.0015                    -0.0015                  301.4538099192489
0.0015                    -5.0E-4                  299.32114503734
0.0015                    5.0E-4                   296.0683373056281
0.0015                    0.0015                   294.30609801070887
0.0015                    0.0025                   293.64053941982365
0.0015                    0.0035                   293.130547355524
0.0015                    0.0045                   293.11836120158034
0.0015                    0.0055                   293.1394592127226
0.0015                    0.0065                   293.15525496145364
0.0015                    0.0075                   293.1578975625466
0.0015                    0.0085                   293.15778695388593
0.0015                    0.0095                   293.1537699078659
0.0015                    0.0105                   293.1507839469249
0.0015                    0.0115                   293.1491381053298
0.0015                    0.0125                   293.26638884378167
0.0015                    0.0135                   294.4369808855869
0.0015                    0.0145                   295.9631764029068
0.0015                    0.0155                   299.45767661912134
0.0015                    0.0165                   304.85774461648015
0.0015                    0.0175                   311.5542286127294
0.0015                    0.0185                   316.6270739558537
0.0015                    0.0195                   320.9145558024123
0.0015                    0.0205                   325.7426001663421
0.0015                    0.0215                   329.14085264548856
0.0015                    0.0225                   332.6801461893661
0.0015                    0.0235                   336.51580748773006
0.0015                    0.0245                   340.41890522909875
0.0015                    0.0255                   343.16450263583397
0.0015                    0.0265                   346.2444345952797
0.0015                    0.0275                   349.52788400068647
0.0015                    0.0285                   352.5960026886132
0.0015                    0.0295                   356.0812171483932
0.0015                    0.0305                   358.7364746400216
0.0015                    0.0315                   360.488049458625
0.0025                    -0.0315                  357.30938111718683
0.0025                    -0.0305                  355.5288648507296
0.0025                    -0.0295                  352.9686751400018
0.0025                    -0.0285                  349.45031453790125
0.0025                    -0.0275                  346.0935870191832
0.0025                    -0.0265                  343.4056527613358
0.0025                    -0.0255                  340.7546723999061
0.0025                    -0.0245                  338.90894240954236
0.0025                    -0.0235                  337.94732401353633
0.0025                    -0.0225                  336.9857056175304
0.0025                    -0.0215                  336.40955477267323
0.0025                    -0.0205                  335.9575651589646
0.0025                    -0.0195                  335.505575545256
0.0025                    -0.0185                  335.3071626277391
0.0025                    -0.0175                  335.0022574260324
0.0025                    -0.0165                  334.69735222432564
0.0025                    -0.0155                  334.3560117692316
0.0025                    -0.0145                  333.87481034602536
0.0025                    -0.0135                  333.39360892281917
0.0025                    -0.0125                  332.4508290236935
0.0025                    -0.0115                  331.4577869650054
0.0025                    -0.0105                  330.4647449063174
0.0025                    -0.0095                  328.46288370616116
0.0025                    -0.0085                  326.507326420239
0.0025                    -0.0075                  324.5517691343168
0.0025                    -0.0065                  321.8110281209449
0.0025                    -0.0055                  319.0712875253313
0.0025                    -0.0045                  316.33154692971755
0.0025                    -0.0035                  312.37215750380034
0.0025                    -0.0025                  307.95814998670494
0.0025                    -0.0015                  303.55156526466635
0.0025                    -5.0E-4                  300.18865087608333
0.0025                    5.0E-4                   296.92377855287214
0.0025                    0.0015                   294.3430566351121
0.0025                    0.0025                   293.8313000019178
0.0025                    0.0035                   293.3195433687235
0.0025                    0.0045                   293.11604305161876
0.0025                    0.0055                   293.13714964320803
0.0025                    0.0065                   293.1582562347973
0.0025                    0.0075                   293.16290426802374
0.0025                    0.0085                   293.16280344985364
0.0025                    0.0095                   293.159975369229
0.0025                    0.0105                   293.15830427283095
0.0025                    0.0115                   293.15663317643305
0.0025                    0.0125                   293.7329446133759
0.0025                    0.0135                   294.90228115871923
0.0025                    0.0145                   296.0716177040625
0.0025                    0.0155                   300.9288540533948
0.0025                    0.0165                   306.3262712831604
0.0025                    0.0175                   311.1261329118579
0.0025                    0.0185                   315.39983102895735
0.0025                    0.0195                   319.67352914605686
0.0025                    0.0205                   322.97385879421233
0.0025                    0.0215                   326.3663090122187
0.0025                    0.0225                   329.80057953331357
0.0025                    0.0235                   333.68694937693505
0.0025                    0.0245                   337.57727917485727
0.0025                    0.0255                   341.93577019440454
0.0025                    0.0265                   345.2195525064135
0.0025                    0.0275                   348.5033348184224
0.0025                    0.0285                   352.35502198791363
0.0025                    0.0295                   355.9096564425052
0.0025                    0.0305                   358.49717142110745
0.0025                    0.0315                   360.3048866935087
0.0035                    -0.0315                  355.8819288300342
0.0035                    -0.0305                  353.692769325288
0.0035                    -0.0295                  351.4988436246819
0.0035                    -0.0285                  348.05971937356554
0.0035                    -0.0275                  344.97229900624257
0.0035                    -0.0265                  342.018422527172
0.0035                    -0.0255                  339.5208982448661
0.0035                    -0.0245                  339.0416970421299
0.0035                    -0.0235                  338.30441734229817
0.0035                    -0.0225                  337.4552412701489
0.0035                    -0.0215                  337.7584305186665
0.0035                    -0.0205                  337.5712690465624
0.0035                    -0.0195                  337.30529747476083
0.0035                    -0.0185                  337.87840251148134
0.0035                    -0.0175                  337.80358427181994
0.0035                    -0.0165                  337.55275512856383
0.0035                    -0.0155                  337.4552311776056
0.0035                    -0.0145                  337.0417570925873
0.0035                    -0.0135                  336.1944805897006
0.0035                    -0.0125                  334.58553213165845
0.0035                    -0.0115                  333.540742102517
0.0035                    -0.0105                  331.5318924446686
0.0035                    -0.0095                  328.0453427096851
0.0035                    -0.0085                  326.089785423763
0.0035                    -0.0075                  323.43988465046385
0.0035                    -0.0065                  320.1331543926342
0.0035                    -0.0055                  317.3934137970205
0.0035                    -0.0045                  315.0230318917462
0.0035                    -0.0035                  312.4849858500919
0.0035                    -0.0025                  308.0709783329964
0.0035                    -0.0015                  303.7325842048961
0.0035                    -5.0E-4                  299.78617322052594
0.0035                    5.0E-4                   296.52130089731475
0.0035                    0.0015                   294.7096463540813
0.0035                    0.0025                   293.694145473303
0.0035                    0.0035                   293.26980758288835
0.0035                    0.0045                   293.13598794083754
0.0035                    0.0055                   293.13679881772373
0.0035                    0.0065                   293.1563129208616
0.0035                    0.0075                   293.17127873291923
0.0035                    0.0085                   293.17117791474914
0.0035                    0.0095                   293.1605763524107
0.0035                    0.0105                   293.1536108634542
0.0035                    0.0115                   293.24901667631195
0.0035                    0.0125                   293.72659661506987
0.0035                    0.0135                   294.78304323589157
0.0035                    0.0145                   297.2092405331488
0.0035                    0.0155                   301.02633683823535
0.0035                    0.0165                   306.42375406800096
0.0035                    0.0175                   309.90567665177565
0.0035                    0.0185                   313.7676639898463
0.0035                    0.0195                   317.30049096988347
0.0035                    0.0205                   319.2096945254529
0.0035                    0.0215                   322.5215996591265
0.0035                    0.0225                   326.24607590743295
0.0035                    0.0235                   330.1194336757157
0.0035                    0.0245                   334.1524298903049
0.0035                    0.0255                   339.9507704768282
0.0035                    0.0265                   344.2001707828308
0.0035                    0.0275                   347.94525027708244
0.0035                    0.0285                   352.2026296339891
0.0035                    0.0295                   355.9925297947686
0.0035                    0.0305                   358.17565530664444
0.0035                    0.0315                   360.1003853119141
0.0045                    -0.0315                  354.8587337671101
0.0045                    -0.0305                  352.42523876954886
0.0045                    -0.0295                  350.00667675868806
0.0045                    -0.0285                  346.95010506638465
0.0045                    -0.0275                  343.8607970509214
0.0045                    -0.0265                  340.7714890354582
0.0045                    -0.0255                  339.59709275574585
0.0045                    -0.0245                  339.1178915530097
0.0045                    -0.0235                  338.6386903502736
0.0045                    -0.0225                  338.612909227871
0.0045                    -0.0215                  338.91609847638864
0.0045                    -0.0205                  339.1849729341602
0.0045                    -0.0195                  339.5737062363186
0.0045                    -0.0185                  340.14681127303913
0.0045                    -0.0175                  340.6049111176075
0.0045                    -0.0165                  340.486403690687
0.0045                    -0.0155                  340.38887973972874
0.0045                    -0.0145                  340.2087038391493
0.0045                    -0.0135                  338.6524223014742
0.0045                    -0.0125                  337.043473843432
0.0045                    -0.0115                  335.54678975031754
0.0045                    -0.0105                  332.05045920284635
0.0045                    -0.0095                  328.5541286553752
0.0045                    -0.0085                  325.5092570297013
0.0045                    -0.0075                  322.1429388978636
0.0045                    -0.0065                  318.77662076602576
0.0045                    -0.0055                  315.84569368002036
0.0045                    -0.0045                  313.7392561756116
0.0045                    -0.0035                  311.6328186712028
0.0045                    -0.0025                  308.21836956444986
0.0045                    -0.0015                  303.9136031451259
0.0045                    -5.0E-4                  299.608836725802
0.0045                    5.0E-4                   296.9727859810869
0.0045                    0.0015                   295.2505303625775
0.0045                    0.0025                   293.55699094468827
0.0045                    0.0035                   293.35748028995
0.0045                    0.0045                   293.2236606478992
0.0045                    0.0055                   293.13607158671084
0.0045                    0.0065                   293.15424213068115
0.0045                    0.0075                   293.17241267465147
0.0045                    0.0085                   293.1741176287957
0.0045                    0.0095                   293.1619171402961
0.0045                    0.0105                   293.1497166517964
0.0045                    0.0115                   293.5218713786326
0.0045                    0.0125                   293.99945131739054
0.0045                    0.0135                   294.96101988727855
0.0045                    0.0145                   298.40225669456584
0.0045                    0.0155                   301.84349350185306
0.0045                    0.0165                   305.47540198513803
0.0045                    0.0175                   308.7940055261891
0.0045                    0.0185                   312.1354969507352
0.0045                    0.0195                   314.243793465844
0.0045                    0.0205                   316.1529970214135
0.0045                    0.0215                   318.82630436963126
0.0045                    0.0225                   322.69157228155234
0.0045                    0.0235                   326.5568401934734
0.0045                    0.0245                   331.7785538621307
0.0045                    0.0255                   337.576894448654
0.0045                    0.0265                   343.2838205372821
0.0045                    0.0275                   347.54083941340684
0.0045                    0.0285                   351.7978582895316
0.0045                    0.0295                   356.0570402137084
0.0045                    0.0305                   358.0858613220736
0.0045                    0.0315                   360.1213229992005
0.0055                    -0.0315                  353.83553870418604
0.0055                    -0.0305                  351.61679925812643
0.0055                    -0.0295                  349.3958583788009
0.0055                    -0.0285                  346.03371160541764
0.0055                    -0.0275                  342.93708914281046
0.0055                    -0.0265                  340.78276427195647
0.0055                    -0.0255                  340.2231694164831
0.0055                    -0.0245                  339.69967440421544
0.0055                    -0.0235                  339.6455674908217
0.0055                    -0.0225                  340.412032567661
0.0055                    -0.0215                  340.71756658795243
0.0055                    -0.0205                  341.5126044869959
0.0055                    -0.0195                  342.530102466776
0.0055                    -0.0185                  343.1017189872221
0.0055                    -0.0175                  343.5412238713931
0.0055                    -0.0165                  343.64659087523853
0.0055                    -0.0155                  343.5466209546649
0.0055                    -0.0145                  342.2819137398134
0.0055                    -0.0135                  340.48587941184144
0.0055                    -0.0125                  338.8802389240352
0.0055                    -0.0115                  335.1361137228836
0.0055                    -0.0105                  331.233893258818
0.0055                    -0.0095                  327.7411642354013
0.0055                    -0.0085                  323.34126739555785
0.0055                    -0.0075                  319.6954046328534
0.0055                    -0.0065                  316.32847350899084
0.0055                    -0.0055                  314.0726528733965
0.0055                    -0.0045                  311.97273833375743
0.0055                    -0.0035                  309.863504736658
0.0055                    -0.0025                  307.91308759066595
0.0055                    -0.0015                  303.6039135391377
0.0055                    -5.0E-4                  299.50156393106175
0.0055                    5.0E-4                   296.7248860403983
0.0055                    0.0015                   294.99375016030496
0.0055                    0.0025                   293.7351165201835
0.0055                    0.0035                   293.33440637962
0.0055                    0.0045                   293.19954044708345
0.0055                    0.0055                   293.1503714459341
0.0055                    0.0065                   293.1594492720405
0.0055                    0.0075                   293.1770984095497
0.0055                    0.0085                   293.1771959694148
0.0055                    0.0095                   293.1650033064679
0.0055                    0.0105                   293.2257874208288
0.0055                    0.0115                   293.51760859379925
0.0055                    0.0125                   293.99495242301316
0.0055                    0.0135                   295.4487995781184
0.0055                    0.0145                   298.4192924723654
0.0055                    0.0155                   301.90036970739806
0.0055                    0.0165                   305.91946116178997
0.0055                    0.0175                   309.2506613610445
0.0055                    0.0185                   311.2813391970003
0.0055                    0.0195                   312.53205449749936
0.0055                    0.0205                   314.44598652187995
0.0055                    0.0215                   316.127368790332
0.0055                    0.0225                   319.7844292581202
0.0055                    0.0235                   323.72366118187375
0.0055                    0.0245                   328.29062997104796
0.0055                    0.0255                   334.0378711673276
0.0055                    0.0265                   340.9615230069556
0.0055                    0.0275                   347.1045348855555
0.0055                    0.0285                   351.3615537616803
0.0055                    0.0295                   355.9849277296463
0.0055                    0.0305                   358.17249787671466
0.0055                    0.0315                   360.14226068648685
0.0065                    -0.0315                  353.2744174073002
0.0065                    -0.0305                  351.0289413787208
0.0065                    -0.0295                  348.7185243415838
0.0065                    -0.0285                  345.35637756820057
0.0065                    -0.0275                  342.0133812346995
0.0065                    -0.0265                  341.4421289659912
0.0065                    -0.0255                  340.8725735041926
0.0065                    -0.0245                  340.3366985868692
0.0065                    -0.0235                  341.1605851344067
0.0065                    -0.0225                  342.1685675778492
0.0065                    -0.0215                  342.77144756741336
0.0065                    -0.0205                  344.14086209427967
0.0065                    -0.0195                  345.51027662114603
0.0065                    -0.0185                  346.16779444802256
0.0065                    -0.0175                  346.49465503707563
0.0065                    -0.0165                  346.8215156261287
0.0065                    -0.0155                  346.3271276241614
0.0065                    -0.0145                  344.23759900498146
0.0065                    -0.0135                  342.1480703858014
0.0065                    -0.0125                  339.61493470029563
0.0065                    -0.0115                  334.75677960945586
0.0065                    -0.0105                  330.02639238775663
0.0065                    -0.0095                  326.08624924387846
0.0065                    -0.0085                  321.3677699257405
0.0065                    -0.0075                  316.90495470415686
0.0065                    -0.0065                  314.1452427272378
0.0065                    -0.0055                  312.1184223489353
0.0065                    -0.0045                  310.06778553127947
0.0065                    -0.0035                  308.0660345170315
0.0065                    -0.0025                  306.1462649270127
0.0065                    -0.0015                  303.1672758649489
0.0065                    -5.0E-4                  299.8273737621109
0.0065                    5.0E-4                   296.76202843820136
0.0065                    0.0015                   294.5914730692063
0.0065                    0.0025                   293.9686294124592
0.0065                    0.0035                   293.3457857557121
0.0065                    0.0045                   293.19164314624055
0.0065                    0.0055                   293.1761062818787
0.0065                    0.0065                   293.16586653068305
0.0065                    0.0075                   293.1731736381284
0.0065                    0.0085                   293.17366221247414
0.0065                    0.0095                   293.1683458588727
0.0065                    0.0105                   293.3463297406572
0.0065                    0.0115                   293.5368008834502