% Model:              SIMBench260525.mph
% Version:            COMSOL 6.2.0.339
% Date:               May 27 2026, 17:54
% Dimension:          2
% Nodes:              4096
% Expressions:        1
% Description:        温度
% Length unit:        m
% x                       y                        T (K)
5.0E-4                    -0.0315                  339.43545515947596
5.0E-4                    -0.0305                  338.01826751369725
5.0E-4                    -0.0295                  336.6034797516748
5.0E-4                    -0.0285                  334.93907731522893
5.0E-4                    -0.0275                  333.4596787263397
5.0E-4                    -0.0265                  332.0206920793999
5.0E-4                    -0.0255                  331.3770260749927
5.0E-4                    -0.0245                  330.7273495013388
5.0E-4                    -0.0235                  330.1019375250229
5.0E-4                    -0.0225                  329.64490704552657
5.0E-4                    -0.0215                  329.2176925883574
5.0E-4                    -0.0205                  328.7578180919889
5.0E-4                    -0.0195                  328.3669444268722
5.0E-4                    -0.0185                  328.06475722653647
5.0E-4                    -0.0175                  327.60035768775936
5.0E-4                    -0.0165                  327.12511848699756
5.0E-4                    -0.0155                  326.7362659954723
5.0E-4                    -0.0145                  326.36539391662404
5.0E-4                    -0.0135                  326.10587816293184
5.0E-4                    -0.0125                  325.8606270976972
5.0E-4                    -0.0115                  325.7212129514445
5.0E-4                    -0.0105                  325.6530252596738
5.0E-4                    -0.0095                  325.58475921036404
5.0E-4                    -0.0085                  325.59556344872516
5.0E-4                    -0.0075                  325.62989826089796
5.0E-4                    -0.0065                  325.6642330730708
5.0E-4                    -0.0055                  325.7390582694881
5.0E-4                    -0.0045                  325.8158168318617
5.0E-4                    -0.0035                  325.89257539423534
5.0E-4                    -0.0025                  325.9864198867205
5.0E-4                    -0.0015                  326.0514968976011
5.0E-4                    -5.0E-4                  326.1184636611428
5.0E-4                    5.0E-4                   326.200751066052
5.0E-4                    0.0015                   326.2083139184325
5.0E-4                    0.0025                   326.2365019864857
5.0E-4                    0.0035                   326.31772168935294
5.0E-4                    0.0045                   326.33097015795505
5.0E-4                    0.0055                   326.38556549104624
5.0E-4                    0.0065                   326.37834916576406
5.0E-4                    0.0075                   326.2658453781238
5.0E-4                    0.0085                   326.2351744406145
5.0E-4                    0.0095                   325.74409591382795
5.0E-4                    0.0105                   325.05103449388105
5.0E-4                    0.0115                   324.5447910217782
5.0E-4                    0.0125                   322.2074506266513
5.0E-4                    0.0135                   319.54306420908495
5.0E-4                    0.0145                   317.65094813606595
5.0E-4                    0.0155                   312.3006058621718
5.0E-4                    0.0165                   306.85639046957465
5.0E-4                    0.0175                   302.7463778368483
5.0E-4                    0.0185                   301.62481655700645
5.0E-4                    0.0195                   300.5032552771648
5.0E-4                    0.0205                   296.82465938433046
5.0E-4                    0.0215                   295.1595032193219
5.0E-4                    0.0225                   293.5932192559579
5.0E-4                    0.0235                   293.15561968307486
5.0E-4                    0.0245                   293.1340639107587
5.0E-4                    0.0255                   293.15161059317415
5.0E-4                    0.0265                   293.2144002385248
5.0E-4                    0.0275                   293.2769463529135
5.0E-4                    0.0285                   293.4889706869176
5.0E-4                    0.0295                   293.8780300202304
5.0E-4                    0.0305                   294.2274439618235
5.0E-4                    0.0315                   294.5302733827664
0.0015                    -0.0315                  338.9563587180003
0.0015                    -0.0305                  337.44649652035827
0.0015                    -0.0295                  335.891765123588
0.0015                    -0.0285                  334.09089887617085
0.0015                    -0.0275                  332.4604475212774
0.0015                    -0.0265                  331.5688516581912
0.0015                    -0.0255                  330.9292734892208
0.0015                    -0.0245                  330.2819199937996
0.0015                    -0.0235                  329.75782033719247
0.0015                    -0.0225                  329.26649313863584
0.0015                    -0.0215                  328.8353142696686
0.0015                    -0.0205                  328.2962219776539
0.0015                    -0.0195                  327.75576501764857
0.0015                    -0.0185                  327.45357781731286
0.0015                    -0.0175                  326.7135120494241
0.0015                    -0.0165                  326.02637045921676
0.0015                    -0.0155                  325.6413415073433
0.0015                    -0.0145                  325.2900772896022
0.0015                    -0.0135                  324.96669444149313
0.0015                    -0.0125                  324.75876694586645
0.0015                    -0.0115                  324.69363621534916
0.0015                    -0.0105                  324.62734708243
0.0015                    -0.0095                  324.5946212274921
0.0015                    -0.0085                  324.64161688282934
0.0015                    -0.0075                  324.68255998895404
0.0015                    -0.0065                  324.7388468065157
0.0015                    -0.0055                  324.82599604719996
0.0015                    -0.0045                  324.90703557820603
0.0015                    -0.0035                  325.0016227415339
0.0015                    -0.0025                  325.11232912612456
0.0015                    -0.0015                  325.1911649559932
0.0015                    -5.0E-4                  325.3012725567001
0.0015                    5.0E-4                   325.4371999648981
0.0015                    0.0015                   325.4692582769263
0.0015                    0.0025                   325.58862379916025
0.0015                    0.0035                   325.74596772004685
0.0015                    0.0045                   325.77100262173167
0.0015                    0.0055                   325.9267051693274
0.0015                    0.0065                   326.0976778103193
0.0015                    0.0075                   325.985174022679
0.0015                    0.0085                   326.09301599375624
0.0015                    0.0095                   326.0955624485555
0.0015                    0.0105                   325.4372633589985
0.0015                    0.0115                   325.1384705739083
0.0015                    0.0125                   324.2437534344858
0.0015                    0.0135                   321.850515190665
0.0015                    0.0145                   320.5011977544608
0.0015                    0.0155                   317.6135450270795
0.0015                    0.0165                   312.67039126100656
0.0015                    0.0175                   308.7421970209096
0.0015                    0.0185                   306.2440969317351
0.0015                    0.0195                   303.11697714416016
0.0015                    0.0205                   297.9017269553097
0.0015                    0.0215                   295.2083092532322
0.0015                    0.0225                   294.062646254964
0.0015                    0.0235                   293.1179493167045
0.0015                    0.0245                   293.0992301513104
0.0015                    0.0255                   293.16352744694876
0.0015                    0.0265                   293.2273878813064
0.0015                    0.0275                   293.296692752276
0.0015                    0.0285                   293.58007681779736
0.0015                    0.0295                   293.8634608833188
0.0015                    0.0305                   294.19154363944926
0.0015                    0.0315                   294.4634884261461
0.0025                    -0.0315                  338.4772622765245
0.0025                    -0.0305                  336.9250462762752
0.0025                    -0.0295                  335.2596435442458
0.0025                    -0.0285                  333.4366771278875
0.0025                    -0.0275                  332.0018287355484
0.0025                    -0.0265                  331.3012599691184
0.0025                    -0.0255                  330.6298117388118
0.0025                    -0.0245                  330.05300761502446
0.0025                    -0.0235                  329.5427944997209
0.0025                    -0.0225                  329.0325813844175
0.0025                    -0.0215                  328.37537420985086
0.0025                    -0.0205                  327.8232757002095
0.0025                    -0.0195                  327.2711771905682
0.0025                    -0.0185                  326.53597460296464
0.0025                    -0.0175                  325.79513366283544
0.0025                    -0.0165                  325.0542927227063
0.0025                    -0.0155                  324.6160583682413
0.0025                    -0.0145                  324.2640774542292
0.0025                    -0.0135                  323.91209654021714
0.0025                    -0.0125                  323.8215897140343
0.0025                    -0.0115                  323.7548559078393
0.0025                    -0.0105                  323.6881221016443
0.0025                    -0.0095                  323.74370468548074
0.0025                    -0.0085                  323.79023465020146
0.0025                    -0.0075                  323.8392482139523
0.0025                    -0.0065                  323.9332717492033
0.0025                    -0.0055                  324.02026093337145
0.0025                    -0.0045                  324.1095003683718
0.0025                    -0.0035                  324.22004014705647
0.0025                    -0.0025                  324.3307199861839
0.0025                    -0.0015                  324.4399922616311
0.0025                    -5.0E-4                  324.575972006979
0.0025                    5.0E-4                   324.7119517523268
0.0025                    0.0015                   324.8448504660366
0.0025                    0.0025                   325.0030866147105
0.0025                    0.0035                   325.16132276338453
0.0025                    0.0045                   325.31655285941497
0.0025                    0.0055                   325.4959434181651
0.0025                    0.0065                   325.67533397691517
0.0025                    0.0075                   325.8187071923415
0.0025                    0.0085                   325.93232852906397
0.0025                    0.0095                   326.0459498657864
0.0025                    0.0105                   325.9468138960913
0.0025                    0.0115                   325.6469741507386
0.0025                    0.0125                   325.34713440538576
0.0025                    0.0135                   324.4168130953395
0.0025                    0.0145                   323.06701542085017
0.0025                    0.0155                   321.71721774636086
0.0025                    0.0165                   318.4093228601023
0.0025                    0.0175                   314.4437920866884
0.0025                    0.0185                   310.08748179356843
0.0025                    0.0195                   304.7494814919265
0.0025                    0.0205                   299.5284030244816
0.0025                    0.0215                   295.40529867773694
0.0025                    0.0225                   294.43952742047804
0.0025                    0.0235                   293.4737561632192
0.0025                    0.0245                   293.1108983309574
0.0025                    0.0255                   293.17544430072337
0.0025                    0.0265                   293.23974159636185
0.0025                    0.0275                   293.3877988831557
0.0025                    0.0285                   293.65654341603454
0.0025                    0.0295                   293.91735459475564
0.0025                    0.0305                   294.15825200093764
0.0025                    0.0315                   294.3967034695259
0.0035                    -0.0315                  338.0238770546637
0.0035                    -0.0305                  336.33326652960494
0.0035                    -0.0295                  334.72827751030496
0.0035                    -0.0285                  333.11764688944106
0.0035                    -0.0275                  332.2298593944787
0.0035                    -0.0265                  331.40401455487347
0.0035                    -0.0255                  330.75727990673533
0.0035                    -0.0245                  330.3293920511199
0.0035                    -0.0235                  329.8551189310234
0.0035                    -0.0225                  329.2415670743662
0.0035                    -0.0215                  328.0196262343872
0.0035                    -0.0205                  327.2849327379751
0.0035                    -0.0195                  326.5925367607187
0.0035                    -0.0185                  325.48683876041457
0.0035                    -0.0175                  324.6877218314042
0.0035                    -0.0165                  324.1255623503337
0.0035                    -0.0155                  323.89002948008476
0.0035                    -0.0145                  323.54457866596874
0.0035                    -0.0135                  323.38823878774133
0.0035                    -0.0125                  323.46712906334193
0.0035                    -0.0115                  323.40039525714695
0.0035                    -0.0105                  323.45515103286687
0.0035                    -0.0095                  323.59776122470197
0.0035                    -0.0085                  323.64429118942263
0.0035                    -0.0075                  323.7512883261289
0.0035                    -0.0065                  323.87840501451257
0.0035                    -0.0055                  323.96539419868077
0.0035                    -0.0045                  324.0648302016826
0.0035                    -0.0035                  324.1711230753199
0.0035                    -0.0025                  324.2818029144473
0.0035                    -0.0015                  324.37212874563363
0.0035                    -5.0E-4                  324.4826117189203
0.0035                    5.0E-4                   324.61859146426804
0.0035                    0.0015                   324.70766398119395
0.0035                    0.0025                   324.8368213969209
0.0035                    0.0035                   324.9904536352276
0.0035                    0.0045                   325.08982395724655
0.0035                    0.0055                   325.244852435871
0.0035                    0.0065                   325.4142362024177
0.0035                    0.0075                   325.5423769012393
0.0035                    0.0085                   325.65888237084846
0.0035                    0.0095                   325.7807090402964
0.0035                    0.0105                   325.9204867046751
0.0035                    0.0115                   325.65996973965576
0.0035                    0.0125                   325.46301348069255
0.0035                    0.0135                   325.3632828870383
0.0035                    0.0145                   324.013485212549
0.0035                    0.0155                   322.8600991090314
0.0035                    0.0165                   321.3776871761942
0.0035                    0.0175                   317.4121564027803
0.0035                    0.0185                   311.35866076604066
0.0035                    0.0195                   305.1315246235321
0.0035                    0.0205                   299.95883118435495
0.0035                    0.0215                   296.1914374609201
0.0035                    0.0225                   294.22185272072403
0.0035                    0.0235                   293.4406123981172
0.0035                    0.0245                   293.095871199646
0.0035                    0.0255                   293.16307397097415
0.0035                    0.0265                   293.23364030001864
0.0035                    0.0275                   293.39987894604235
0.0035                    0.0285                   293.676465000349
0.0035                    0.0295                   293.9372761790702
0.0035                    0.0305                   294.1737532896345
0.0035                    0.0315                   294.4012017459275
0.0045                    -0.0315                  337.8303750594689
0.0045                    -0.0305                  336.0344145918157
0.0045                    -0.0295                  334.2865396938451
0.0045                    -0.0285                  333.3345531442286
0.0045                    -0.0275                  332.44949861103316
0.0045                    -0.0265                  331.56444407783766
0.0045                    -0.0255                  331.02155650436157
0.0045                    -0.0245                  330.5936686487462
0.0045                    -0.0235                  330.16578079313075
0.0045                    -0.0225                  329.11297771098697
0.0045                    -0.0215                  327.89103687100794
0.0045                    -0.0205                  326.7465897757407
0.0045                    -0.0195                  325.7068120097536
0.0045                    -0.0185                  324.6011140094495
0.0045                    -0.0175                  323.58030999997294
0.0045                    -0.0165                  323.33542220925574
0.0045                    -0.0155                  323.09988933900684
0.0045                    -0.0145                  322.85363012361256
0.0045                    -0.0135                  322.94038040965404
0.0045                    -0.0125                  323.0271306956955
0.0045                    -0.0115                  323.07973684691797
0.0045                    -0.0105                  323.24002060484463
0.0045                    -0.0095                  323.4003043627713
0.0045                    -0.0085                  323.5219441195529
0.0045                    -0.0075                  323.6633284383056
0.0045                    -0.0065                  323.8047127570582
0.0045                    -0.0055                  323.91645911927196
0.0045                    -0.0045                  324.02016003499335
0.0045                    -0.0035                  324.12386095071474
0.0045                    -0.0025                  324.2218384108304
0.0045                    -0.0015                  324.3086858584657
0.0045                    -5.0E-4                  324.3955333061011
0.0045                    5.0E-4                   324.49735590127636
0.0045                    0.0015                   324.58467898285346
0.0045                    0.0025                   324.67200206443056
0.0045                    0.0035                   324.78835717744545
0.0045                    0.0045                   324.8877274994644
0.0045                    0.0055                   324.99376145357684
0.0045                    0.0065                   325.13187041952904
0.0045                    0.0075                   325.2600111183506
0.0045                    0.0085                   325.385436212633
0.0045                    0.0095                   325.5232599233316
0.0045                    0.0105                   325.66303758771016
0.0045                    0.0115                   325.6841816198504
0.0045                    0.0125                   325.6204327290517
0.0045                    0.0135                   325.55668383825304
0.0045                    0.0145                   325.0235863831333
0.0045                    0.0155                   324.01804317277276
0.0045                    0.0165                   323.01249996241233
0.0045                    0.0175                   319.347381188178
0.0045                    0.0185                   312.6298397385128
0.0045                    0.0195                   305.9122982888475
0.0045                    0.0205                   301.2531307836386
0.0045                    0.0215                   297.48573706020375
0.0045                    0.0225                   294.0321367733136
0.0045                    0.0235                   293.6162197263629
0.0045                    0.0245                   293.20030267941223
0.0045                    0.0255                   293.150424703356
0.0045                    0.0265                   293.23669587491116
0.0045                    0.0275                   293.3842495271915
0.0045                    0.0285                   293.666919325872
0.0045                    0.0295                   293.94876920573466
0.0045                    0.0305                   294.1898964009596
0.0045                    0.0315                   294.4176981616269
0.0055                    -0.0315                  337.63687306427414
0.0055                    -0.0305                  336.1181608076698
0.0055                    -0.0295                  334.6263717672023
0.0055                    -0.0285                  333.4740120270913
0.0055                    -0.0275                  332.570781202324
0.0055                    -0.0265                  331.701556745577
0.0055                    -0.0255                  330.95771668571723
0.0055                    -0.0245                  330.5559567740403
0.0055                    -0.0235                  329.6525974402328
0.0055                    -0.0225                  328.03201759760304
0.0055                    -0.0215                  326.81439003246726
0.0055                    -0.0205                  325.64198202124237
0.0055                    -0.0195                  324.5263853498276
0.0055                    -0.0185                  323.42244197850084
0.0055                    -0.0175                  323.01321054167397
0.0055                    -0.0165                  322.87067084494913
0.0055                    -0.0155                  322.6324781261511
0.0055                    -0.0145                  322.80347652165597
0.0055                    -0.0135                  322.9589710433667
0.0055                    -0.0125                  323.0419089024252
0.0055                    -0.0115                  323.3983994180908
0.0055                    -0.0105                  323.6042336358323
0.0055                    -0.0095                  323.7633814156592
0.0055                    -0.0085                  324.0985362857401
0.0055                    -0.0075                  324.25340508356726
0.0055                    -0.0065                  324.3945790490053
0.0055                    -0.0055                  324.5910035830862
0.0055                    -0.0045                  324.69457785658085
0.0055                    -0.0035                  324.79398237042307
0.0055                    -0.0025                  324.84719484020377
0.0055                    -0.0015                  324.93404403397307
0.0055                    -5.0E-4                  324.9949011249892
0.0055                    5.0E-4                   324.9772443088127
0.0055                    0.0015                   325.06611837342643
0.0055                    0.0025                   325.0981696122188
0.0055                    0.0035                   325.07035663780687
0.0055                    0.0045                   325.1725575427387
0.0055                    0.0055                   325.2009710859438
0.0055                    0.0065                   325.22190745366163
0.0055                    0.0075                   325.35232335408443
0.0055                    0.0085                   325.41267260909507
0.0055                    0.0095                   325.4927725666636
0.0055                    0.0105                   325.6336925861507
0.0055                    0.0115                   325.72486050694687
0.0055                    0.0125                   325.70265360526423
0.0055                    0.0135                   325.63841515950423
0.0055                    0.0145                   325.5359310403494
0.0055                    0.0155                   324.706448064083
0.0055                    0.0165                   323.6919152188503
0.0055                    0.0175                   320.42388336386034
0.0055                    0.0185                   313.97201000677285
0.0055                    0.0195                   307.33100723204006
0.0055                    0.0205                   301.1316616229984
0.0055                    0.0215                   297.35354889029827
0.0055                    0.0225                   294.5872985402362
0.0055                    0.0235                   293.5904335319641
0.0055                    0.0245                   293.23399383565544
0.0055                    0.0255                   293.1565270731233
0.0055                    0.0265                   293.23995384265726
0.0055                    0.0275                   293.3686201083406
0.0055                    0.0285                   293.6354814225028
0.0055                    0.0295                   293.8978674089629
0.0055                    0.0305                   294.1659190367432
0.0055                    0.0315                   294.43419457732625
0.0065                    -0.0315                  337.91680707783
0.0065                    -0.0305                  336.45011372817356
0.0065                    -0.0295                  334.9853118211714
0.0065                    -0.0285                  333.8329520810603
0.0065                    -0.0275                  332.693018074059
0.0065                    -0.0265                  331.84820083574783
0.0065                    -0.0255                  331.0033835974367
0.0065                    -0.0245                  330.4882747383548
0.0065                    -0.0235                  328.7525008926399
0.0065                    -0.0225                  326.88955250833396
0.0065                    -0.0215                  325.532799868649
0.0065                    -0.0205                  324.4048827802322
0.0065                    -0.0195                  323.27696569181524
0.0065                    -0.0185                  322.46085699559615
0.0065                    -0.0175                  322.47989772311985
0.0065                    -0.0165                  322.49266196012735
0.0065                    -0.0155                  322.4468820710933
0.0065                    -0.0145                  322.7980110631554
0.0065                    -0.0135                  323.1166115583195
0.0065                    -0.0125                  323.33635954303907
0.0065                    -0.0115                  323.77669108662843
0.0065                    -0.0105                  324.1537087026579
0.0065                    -0.0095                  324.40963778884
0.0065                    -0.0085                  324.77322095310547
0.0065                    -0.0075                  325.0635123971558
0.0065                    -0.0065                  325.24038909278363
0.0065                    -0.0055                  325.44343699905244
0.0065                    -0.0045                  325.6030425807565
0.0065                    -0.0035                  325.667957204843
0.0065                    -0.0025                  325.7150380543351
0.0065                    -0.0015                  325.78381068665
0.0065                    -5.0E-4                  325.7577989721727
0.0065                    5.0E-4                   325.70219072547275
0.0065                    0.0015                   325.7409321133565
0.0065                    0.0025                   325.6559524708068
0.0065                    0.0035                   325.552498781208
0.0065                    0.0045                   325.6003975880593
0.0065                    0.0055                   325.52448285915284
0.0065                    0.0065                   325.4485681302465
0.0065                    0.0075                   325.5295231470272
0.0065                    0.0085                   325.52959838195477
0.0065                    0.0095                   325.5296736168824
0.0065                    0.0105                   325.64292202407654
0.0065                    0.0115                   325.7082994077334