% Model:              SIMBench260525.mph
% Version:            COMSOL 6.2.0.339
% Date:               May 27 2026, 17:22
% Dimension:          2
% Nodes:              4096
% Expressions:        1
% Description:        温度
% Length unit:        m
% x                       y                        T (K)
5.0E-4                    -0.0315                  318.56683319362486
5.0E-4                    -0.0305                  317.4574050391004
5.0E-4                    -0.0295                  316.35024566710865
5.0E-4                    -0.0285                  315.3882274820201
5.0E-4                    -0.0275                  314.4677979099001
5.0E-4                    -0.0265                  313.63869331917294
5.0E-4                    -0.0255                  313.3077840786075
5.0E-4                    -0.0245                  312.9199118299139
5.0E-4                    -0.0235                  312.587261294283
5.0E-4                    -0.0225                  312.3774796721982
5.0E-4                    -0.0215                  312.1644070572542
5.0E-4                    -0.0205                  311.94602921942806
5.0E-4                    -0.0195                  311.7898729802921
5.0E-4                    -0.0185                  311.64757049716985
5.0E-4                    -0.0175                  311.39346807428194
5.0E-4                    -0.0165                  311.29163559013455
5.0E-4                    -0.0155                  311.192801090052
5.0E-4                    -0.0145                  311.00497000119185
5.0E-4                    -0.0135                  310.8134668773057
5.0E-4                    -0.0125                  310.62196375341955
5.0E-4                    -0.0115                  310.55296900048893
5.0E-4                    -0.0105                  310.48772824662717
5.0E-4                    -0.0095                  310.42846106057556
5.0E-4                    -0.0085                  310.43358967057463
5.0E-4                    -0.0075                  310.4233274495497
5.0E-4                    -0.0065                  310.42503863298697
5.0E-4                    -0.0055                  310.45126449912874
5.0E-4                    -0.0045                  310.4674548722065
5.0E-4                    -0.0035                  310.49722193108425
5.0E-4                    -0.0025                  310.52655866414864
5.0E-4                    -0.0015                  310.54951655606544
5.0E-4                    -5.0E-4                  310.59111265204785
5.0E-4                    5.0E-4                   310.583606086924
5.0E-4                    0.0015                   310.5716444912621
5.0E-4                    0.0025                   310.594810011472
5.0E-4                    0.0035                   310.4918988252158
5.0E-4                    0.0045                   310.38898763895963
5.0E-4                    0.0055                   310.337893017591
5.0E-4                    0.0065                   310.0595185825633
5.0E-4                    0.0075                   309.7843563079415
5.0E-4                    0.0085                   309.49277024962464
5.0E-4                    0.0095                   308.7780934937698
5.0E-4                    0.0105                   308.1504150526329
5.0E-4                    0.0115                   307.01694052322637
5.0E-4                    0.0125                   305.1727560854071
5.0E-4                    0.0135                   303.6113691220495
5.0E-4                    0.0145                   301.304195007496
5.0E-4                    0.0155                   298.49458256613354
5.0E-4                    0.0165                   295.4743526076201
5.0E-4                    0.0175                   294.8395276582355
5.0E-4                    0.0185                   294.5098737092763
5.0E-4                    0.0195                   293.7479421438508
5.0E-4                    0.0205                   293.77278603136745
5.0E-4                    0.0215                   293.79762991888407
5.0E-4                    0.0225                   293.39858352631165
5.0E-4                    0.0235                   293.2280387228392
5.0E-4                    0.0245                   293.1520549018826
5.0E-4                    0.0255                   293.16376361805294
5.0E-4                    0.0265                   293.1842607845382
5.0E-4                    0.0275                   293.1672747441725
5.0E-4                    0.0285                   293.1502887038068
5.0E-4                    0.0295                   293.1500930584473
5.0E-4                    0.0305                   293.1169555655654
5.0E-4                    0.0315                   293.0838180726835
0.0015                    -0.0315                  317.92287823051106
0.0015                    -0.0305                  316.66299622861584
0.0015                    -0.0295                  315.604221386925
0.0015                    -0.0285                  314.6462257219308
0.0015                    -0.0275                  313.7111680205296
0.0015                    -0.0265                  313.3044041535408
0.0015                    -0.0255                  313.0345637897218
0.0015                    -0.0245                  312.65606324926864
0.0015                    -0.0235                  312.44359807821826
0.0015                    -0.0225                  312.23985648412054
0.0015                    -0.0215                  312.0259158588356
0.0015                    -0.0205                  311.8009305143997
0.0015                    -0.0195                  311.595308115522
0.0015                    -0.0185                  311.4112977888525
0.0015                    -0.0175                  311.08299038775544
0.0015                    -0.0165                  310.8423092033118
0.0015                    -0.0155                  310.6962347352038
0.0015                    -0.0145                  310.47438515171154
0.0015                    -0.0135                  310.2690613447521
0.0015                    -0.0125                  310.15124838931763
0.0015                    -0.0115                  310.0973871050864
0.0015                    -0.0105                  310.03549553437614
0.0015                    -0.0095                  310.02778714926706
0.0015                    -0.0085                  310.0461710221969
0.0015                    -0.0075                  310.0398659978899
0.0015                    -0.0065                  310.073874946674
0.0015                    -0.0055                  310.11599756790577
0.0015                    -0.0045                  310.1321879409835
0.0015                    -0.0035                  310.1835005645328
0.0015                    -0.0025                  310.2301342312145
0.0015                    -0.0015                  310.2580490352138
0.0015                    -5.0E-4                  310.315585366494
0.0015                    5.0E-4                   310.3499089331033
0.0015                    0.0015                   310.35963465356963
0.0015                    0.0025                   310.42012812814295
0.0015                    0.0035                   310.40025821150294
0.0015                    0.0045                   310.37005973159893
0.0015                    0.0055                   310.42655721623646
0.0015                    0.0065                   310.26544416305717
0.0015                    0.0075                   310.15898887669834
0.0015                    0.0085                   310.1609208672685
0.0015                    0.0095                   309.5840287096725
0.0015                    0.0105                   309.26553276114566
0.0015                    0.0115                   309.0645622853518
0.0015                    0.0125                   307.2768688838963
0.0015                    0.0135                   306.235594436826
0.0015                    0.0145                   305.02959140871275
0.0015                    0.0155                   302.182204957468
0.0015                    0.0165                   298.9384581972654
0.0015                    0.0175                   296.61967810604574
0.0015                    0.0185                   296.0097498187091
0.0015                    0.0195                   294.8502004268205
0.0015                    0.0205                   294.4458300949724
0.0015                    0.0215                   294.0960828810514
0.0015                    0.0225                   293.6125161897752
0.0015                    0.0235                   293.2486909172552
0.0015                    0.0245                   293.1645594340335
0.0015                    0.0255                   293.16910232012725
0.0015                    0.0265                   293.21051267436667
0.0015                    0.0275                   293.22605093348915
0.0015                    0.0285                   293.21572179515533
0.0015                    0.0295                   293.2391682654319
0.0015                    0.0305                   293.2254639974106
0.0015                    0.0315                   293.2241112736597
0.0025                    -0.0315                  317.2789232673973
0.0025                    -0.0305                  316.12478842472177
0.0025                    -0.0295                  315.0618705746298
0.0025                    -0.0285                  314.0726232628257
0.0025                    -0.0275                  313.39392135475856
0.0025                    -0.0265                  313.09712875088786
0.0025                    -0.0255                  312.80207379709856
0.0025                    -0.0245                  312.57557091270434
0.0025                    -0.0235                  312.36547228128234
0.0025                    -0.0225                  312.15537364986034
0.0025                    -0.0215                  311.88914647120407
0.0025                    -0.0205                  311.66441392177916
0.0025                    -0.0195                  311.4396813723543
0.0025                    -0.0185                  311.0728046825552
0.0025                    -0.0175                  310.7436487051795
0.0025                    -0.0165                  310.415450669603
0.0025                    -0.0155                  310.19502005902996
0.0025                    -0.0145                  309.97248807209553
0.0025                    -0.0135                  309.78636547781247
0.0025                    -0.0125                  309.73521687464756
0.0025                    -0.0115                  309.68039123556684
0.0025                    -0.0105                  309.65979437193084
0.0025                    -0.0095                  309.67717116155785
0.0025                    -0.0085                  309.6945479511848
0.0025                    -0.0075                  309.7301881323074
0.0025                    -0.0065                  309.7720174030198
0.0025                    -0.0055                  309.8138466737322
0.0025                    -0.0045                  309.8627863467909
0.0025                    -0.0035                  309.91408443515047
0.0025                    -0.0025                  309.96538252350996
0.0025                    -0.0015                  310.0191358143961
0.0025                    -5.0E-4                  310.0764860611142
0.0025                    5.0E-4                   310.13383630783244
0.0025                    0.0015                   310.1910655635998
0.0025                    0.0025                   310.2514905821094
0.0025                    0.0035                   310.3110066022613
0.0025                    0.0045                   310.36625177219327
0.0025                    0.0055                   310.4227719133953
0.0025                    0.0065                   310.47596203231035
0.0025                    0.0075                   310.4778940228804
0.0025                    0.0085                   310.4798260134505
0.0025                    0.0095                   310.4483793057009
0.0025                    0.0105                   310.24740882990704
0.0025                    0.0115                   310.0464383541132
0.0025                    0.0125                   309.5964316508732
0.0025                    0.0135                   308.61641343313863
0.0025                    0.0145                   307.6363952154041
0.0025                    0.0155                   305.5825372793013
0.0025                    0.0165                   302.32797636299836
0.0025                    0.0175                   299.0734154466953
0.0025                    0.0185                   297.618019810612
0.0025                    0.0195                   296.44546096229277
0.0025                    0.0205                   294.96898676324173
0.0025                    0.0215                   294.32525271585547
0.0025                    0.0225                   293.82644885323884
0.0025                    0.0235                   293.3985198646376
0.0025                    0.0245                   293.18527975429026
0.0025                    0.0255                   293.17444102220156
0.0025                    0.0265                   293.22320272713966
0.0025                    0.0275                   293.2794264974285
0.0025                    0.0285                   293.2924134227074
0.0025                    0.0295                   293.33341634920197
0.0025                    0.0305                   293.3620430995269
0.0025                    0.0315                   293.36580655156877
0.0035                    -0.0315                  316.92322833394496
0.0035                    -0.0305                  315.76103031348083
0.0035                    -0.0295                  314.6676915755762
0.0035                    -0.0285                  313.8290193208133
0.0035                    -0.0275                  313.48768263838105
0.0035                    -0.0265                  313.1645061476688
0.0035                    -0.0255                  312.90142274593825
0.0035                    -0.0245                  312.7602816029122
0.0035                    -0.0235                  312.5693810476182
0.0035                    -0.0225                  312.2826293258961
0.0035                    -0.0215                  311.8237495130528
0.0035                    -0.0205                  311.5707226506005
0.0035                    -0.0195                  311.1815223531944
0.0035                    -0.0185                  310.60414483643933
0.0035                    -0.0175                  310.27498885906357
0.0035                    -0.0165                  310.0191614931533
0.0035                    -0.0155                  309.80439418695283
0.0035                    -0.0145                  309.58186220001835
0.0035                    -0.0135                  309.5414318726414
0.0035                    -0.0125                  309.52908557002826
0.0035                    -0.0115                  309.47425993094754
0.0035                    -0.0105                  309.5428926364795
0.0035                    -0.0095                  309.59053123949343
0.0035                    -0.0085                  309.6120116717643
0.0035                    -0.0075                  309.6927203578011
0.0035                    -0.0065                  309.747775573683
0.0035                    -0.0055                  309.7932720625223
0.0035                    -0.0045                  309.852776861587
0.0035                    -0.0035                  309.9055833122009
0.0035                    -0.0025                  309.95478300350294
0.0035                    -0.0015                  310.00017782898493
0.0035                    -5.0E-4                  310.0572043202893
0.0035                    5.0E-4                   310.1074938773427
0.0035                    0.0015                   310.15314576900596
0.0035                    0.0025                   310.21357078751555
0.0035                    0.0035                   310.2637356898051
0.0035                    0.0045                   310.3120134090119
0.0035                    0.0055                   310.3685335502139
0.0035                    0.0065                   310.4215878383127
0.0035                    0.0075                   310.45138777121764
0.0035                    0.0085                   310.4533197617877
0.0035                    0.0095                   310.504413583419
0.0035                    0.0105                   310.40342253304857
0.0035                    0.0115                   310.2309345666033
0.0035                    0.0125                   310.23849274829945
0.0035                    0.0135                   309.4885440168152
0.0035                    0.0145                   308.7344645753809
0.0035                    0.0155                   308.50677974735356
0.0035                    0.0165                   305.3801426558249
0.0035                    0.0175                   302.7030525156142
0.0035                    0.0185                   300.6968666254427
0.0035                    0.0195                   299.52430777712345
0.0035                    0.0205                   296.58245769010716
0.0035                    0.0215                   295.146859795025
0.0035                    0.0225                   294.1695601729516
0.0035                    0.0235                   293.4325850793502
0.0035                    0.0245                   293.2452968911923
0.0035                    0.0255                   293.2041348787957
0.0035                    0.0265                   293.2346841087139
0.0035                    0.0275                   293.2960958881214
0.0035                    0.0285                   293.4120402333391
0.0035                    0.0295                   293.4748664982102
0.0035                    0.0305                   293.5007617829277
0.0035                    0.0315                   293.4969936717599
0.0045                    -0.0315                  316.72608376243704
0.0045                    -0.0305                  315.51467317523947
0.0045                    -0.0295                  314.31357326351286
0.0045                    -0.0285                  313.9204737354983
0.0045                    -0.0275                  313.58014358843513
0.0045                    -0.0265                  313.2398134413719
0.0045                    -0.0255                  313.06387168048894
0.0045                    -0.0245                  312.9227305374628
0.0045                    -0.0235                  312.7732898139541
0.0045                    -0.0225                  312.3346711492674
0.0045                    -0.0215                  311.8757913364242
0.0045                    -0.0205                  311.451485399593
0.0045                    -0.0195                  310.86796873556534
0.0045                    -0.0185                  310.28445207153777
0.0045                    -0.0175                  309.8359335417394
0.0045                    -0.0165                  309.6228723167036
0.0045                    -0.0155                  309.40981109166773
0.0045                    -0.0145                  309.28650016916015
0.0045                    -0.0135                  309.2964982674704
0.0045                    -0.0125                  309.3064963657806
0.0045                    -0.0115                  309.34106713758246
0.0045                    -0.0105                  309.4195318558491
0.0045                    -0.0095                  309.4979965741156
0.0045                    -0.0085                  309.56439822054807
0.0045                    -0.0075                  309.64510690658483
0.0045                    -0.0065                  309.7235337443462
0.0045                    -0.0055                  309.7798343035496
0.0045                    -0.0045                  309.83933910261436
0.0045                    -0.0035                  309.8970821892514
0.0045                    -0.0025                  309.9426965886345
0.0045                    -0.0015                  309.98809141411647
0.0045                    -5.0E-4                  310.03635557885383
0.0045                    5.0E-4                   310.0797975081256
0.0045                    0.0015                   310.12323943739733
0.0045                    0.0025                   310.1715208897477
0.0045                    0.0035                   310.21646477734896
0.0045                    0.0045                   310.2614086649503
0.0045                    0.0055                   310.3125036779327
0.0045                    0.0065                   310.36479493784964
0.0045                    0.0075                   310.41708619776665
0.0045                    0.0085                   310.45609215411866
0.0045                    0.0095                   310.50829536825137
0.0045                    0.0105                   310.55943623619015
0.0045                    0.0115                   310.5131394399275
0.0045                    0.0125                   310.5206976216236
0.0045                    0.0135                   310.36067460049173
0.0045                    0.0145                   310.06572406108285
0.0045                    0.0155                   309.8380392330555
0.0045                    0.0165                   308.5942141223519
0.0045                    0.0175                   306.3473927397434
0.0045                    0.0185                   304.10057135713487
0.0045                    0.0195                   301.76628654449564
0.0045                    0.0205                   298.6080557537579
0.0045                    0.0215                   295.9817453073329
0.0045                    0.0225                   294.8398002002613
0.0045                    0.0235                   293.6649315014903
0.0045                    0.0245                   293.2841801279061
0.0045                    0.0255                   293.24061608106285
0.0045                    0.0265                   293.2508159931498
0.0045                    0.0275                   293.3188104213418
0.0045                    0.0285                   293.43633101573045
0.0045                    0.0295                   293.56768432602547
0.0045                    0.0305                   293.6221750479179
0.0045                    0.0315                   293.59823138563945
0.0055                    -0.0315                  316.52893919092924
0.0055                    -0.0305                  315.46189214124706
0.0055                    -0.0295                  314.4221053397872
0.0055                    -0.0285                  313.97113285129757
0.0055                    -0.0275                  313.62935661461427
0.0055                    -0.0265                  313.3414662339309
0.0055                    -0.0255                  313.14565819025296
0.0055                    -0.0245                  313.0096244822779
0.0055                    -0.0235                  312.5822407406204
0.0055                    -0.0225                  311.98722755671207
0.0055                    -0.0215                  311.52562897491106
0.0055                    -0.0205                  310.89025382430316
0.0055                    -0.0195                  310.2579684957225
0.0055                    -0.0185                  309.671885814049
0.0055                    -0.0175                  309.5122677215577
0.0055                    -0.0165                  309.3191879075657
0.0055                    -0.0155                  309.1213270898945
0.0055                    -0.0145                  309.25478604980094
0.0055                    -0.0135                  309.2641981702586
0.0055                    -0.0125                  309.3118217210664
0.0055                    -0.0115                  309.5183608772307
0.0055                    -0.0105                  309.5943364167436
0.0055                    -0.0095                  309.7150258161728
0.0055                    -0.0085                  309.89361665456477
0.0055                    -0.0075                  309.9718616670016
0.0055                    -0.0065                  310.08116600522294
0.0055                    -0.0055                  310.1885992454072
0.0055                    -0.0045                  310.24617343551523
0.0055                    -0.0035                  310.30092016711785
0.0055                    -0.0025                  310.3484633827091
0.0055                    -0.0015                  310.39278513900626
0.0055                    -5.0E-4                  310.39133566264263
0.0055                    5.0E-4                   310.41997256310043
0.0055                    0.0015                   310.4629852905788
0.0055                    0.0025                   310.41509021520983
0.0055                    0.0035                   310.45207772802144
0.0055                    0.0045                   310.493801751739
0.0055                    0.0055                   310.43907965310535
0.0055                    0.0065                   310.49134864805626
0.0055                    0.0075                   310.5275218642346
0.0055                    0.0085                   310.514759417126
0.0055                    0.0095                   310.5669701634117
0.0055                    0.0105                   310.6033316569881
0.0055                    0.0115                   310.6101832568708
0.0055                    0.0125                   310.6174856406413
0.0055                    0.0135                   310.633942040953
0.0055                    0.0145                   310.5065724832044
0.0055                    0.0155                   310.27201828095457
0.0055                    0.0165                   310.17261320876355
0.0055                    0.0175                   308.3866352358865
0.0055                    0.0185                   306.1846703098794
0.0055                    0.0195                   302.92336633380603
0.0055                    0.0205                   299.66726716243573
0.0055                    0.0215                   296.65679355142237
0.0055                    0.0225                   294.6546508441496
0.0055                    0.0235                   293.733535834523
0.0055                    0.0245                   293.26378062545234
0.0055                    0.0255                   293.22061996914294
0.0055                    0.0265                   293.27126482539035
0.0055                    0.0275                   293.34152495456226
0.0055                    0.0285                   293.4578649086733
0.0055                    0.0295                   293.5817147401545
0.0055                    0.0305                   293.65577034152
0.0055                    0.0315                   293.6972661864642
0.0065                    -0.0315                  316.62837980655974
0.0065                    -0.0305                  315.55704534946267
0.0065                    -0.0295                  314.5686486702534
0.0065                    -0.0285                  314.11767618176384
0.0065                    -0.0275                  313.6889677611371
0.0065                    -0.0265                  313.46309723118907
0.0065                    -0.0255                  313.23722670124107
0.0065                    -0.0245                  313.05744076886356
0.0065                    -0.0235                  312.3249458108591
0.0065                    -0.0225                  311.59245085285465
0.0065                    -0.0215                  311.0235425446479
0.0065                    -0.0205                  310.3101824849624
0.0065                    -0.0195                  309.5990738556384
0.0065                    -0.0185                  309.25901179386096
0.0065                    -0.0175                  309.1567011962136
0.0065                    -0.0165                  309.0299183303428
0.0065                    -0.0155                  309.0530152260994
0.0065                    -0.0145                  309.18647418600574
0.0065                    -0.0135                  309.2701723866615
0.0065                    -0.0125                  309.4581876916462
0.0065                    -0.0115                  309.68787735775504
0.0065                    -0.0105                  309.83214785180945
0.0065                    -0.0095                  310.04455595591213
0.0065                    -0.0085                  310.26708128525354
0.0065                    -0.0075                  310.39157251115773
0.0065                    -0.0065                  310.54113667497353
0.0065                    -0.0055                  310.69070083878927
0.0065                    -0.0045                  310.76047558688686
0.0065                    -0.0035                  310.8131233208423
0.0065                    -0.0025                  310.865675414821
0.0065                    -0.0015                  310.88913472895035
0.0065                    -5.0E-4                  310.86989539722856
0.0065                    5.0E-4                   310.8610537269069
0.0065                    0.0015                   310.8542431923481
0.0065                    0.0025                   310.7930292306681
0.0065                    0.0035                   310.76617165959146
0.0065                    0.0045                   310.74172175266983
0.0065                    0.0055                   310.67714895359404
0.0065                    0.0065                   310.6689547208073
0.0065                    0.0075                   310.6530827472109
0.0065                    0.0085                   310.6192679345281
0.0065                    0.0095                   310.6408963536509
0.0065                    0.0105                   310.6496116963657
0.0065                    0.0115                   310.6561513493823