% Model:              SIMBench260525.mph
% Version:            COMSOL 6.2.0.339
% Date:               May 27 2026, 18:25
% Dimension:          2
% Nodes:              4096
% Expressions:        1
% Description:        温度
% Length unit:        m
% x                       y                        T (K)
5.0E-4                    -0.0315                  321.0453290181732
5.0E-4                    -0.0305                  319.6497417885262
5.0E-4                    -0.0295                  318.25463357715995
5.0E-4                    -0.0285                  316.5508337930148
5.0E-4                    -0.0275                  315.09027859785294
5.0E-4                    -0.0265                  313.62972340269107
5.0E-4                    -0.0255                  312.9510050079972
5.0E-4                    -0.0245                  312.19505824473276
5.0E-4                    -0.0235                  311.4391114814684
5.0E-4                    -0.0225                  311.18019544833675
5.0E-4                    -0.0215                  310.86126272061483
5.0E-4                    -0.0205                  310.5423299928929
5.0E-4                    -0.0195                  310.3787106608698
5.0E-4                    -0.0185                  310.16764472076204
5.0E-4                    -0.0175                  309.95657878065435
5.0E-4                    -0.0165                  309.60758048097165
5.0E-4                    -0.0155                  309.3761282029094
5.0E-4                    -0.0145                  309.1446759248471
5.0E-4                    -0.0135                  308.234056159838
5.0E-4                    -0.0125                  306.8666068905197
5.0E-4                    -0.0115                  305.4991576212013
5.0E-4                    -0.0105                  303.67894229621425
5.0E-4                    -0.0095                  300.8737088282535
5.0E-4                    -0.0085                  298.0684753602927
5.0E-4                    -0.0075                  295.89707391691184
5.0E-4                    -0.0065                  294.6891515180399
5.0E-4                    -0.0055                  293.55197809131187
5.0E-4                    -0.0045                  293.2197089603758
5.0E-4                    -0.0035                  293.1740334171908
5.0E-4                    -0.0025                  293.1467459972851
5.0E-4                    -0.0015                  293.14810425403937
5.0E-4                    -5.0E-4                  293.15041166338096
5.0E-4                    5.0E-4                   293.1512394317707
5.0E-4                    0.0015                   293.1502439753522
5.0E-4                    0.0025                   293.1487467704855
5.0E-4                    0.0035                   293.1476789156049
5.0E-4                    0.0045                   293.1499757388525
5.0E-4                    0.0055                   293.1988209976032
5.0E-4                    0.0065                   293.4129961645235
5.0E-4                    0.0075                   293.64343865070015
5.0E-4                    0.0085                   294.0585262395133
5.0E-4                    0.0095                   294.0914373995287
5.0E-4                    0.0105                   294.124348559544
5.0E-4                    0.0115                   294.7239468294384
5.0E-4                    0.0125                   295.508364457502
5.0E-4                    0.0135                   296.29278208556565
5.0E-4                    0.0145                   296.9567416345996
5.0E-4                    0.0155                   297.798192916201
5.0E-4                    0.0165                   298.63964419780245
5.0E-4                    0.0175                   299.07877286012086
5.0E-4                    0.0185                   299.3984505138408
5.0E-4                    0.0195                   299.7181281675608
5.0E-4                    0.0205                   299.937418517389
5.0E-4                    0.0215                   300.16449724051324
5.0E-4                    0.0225                   300.3915759636375
5.0E-4                    0.0235                   300.5746728500874
5.0E-4                    0.0245                   300.97342568387245
5.0E-4                    0.0255                   301.3721785176575
5.0E-4                    0.0265                   301.7599711767474
5.0E-4                    0.0275                   302.6357181111757
5.0E-4                    0.0285                   303.511465045604
5.0E-4                    0.0295                   304.4338270099493
5.0E-4                    0.0305                   305.5815647633825
5.0E-4                    0.0315                   306.7293025168157
0.0015                    -0.0315                  320.29569340242614
0.0015                    -0.0305                  318.88695078904925
0.0015                    -0.0295                  317.352638509749
0.0015                    -0.0285                  315.46308990890003
0.0015                    -0.0275                  313.77411438177205
0.0015                    -0.0265                  312.8526072159455
0.0015                    -0.0255                  312.37238603091544
0.0015                    -0.0245                  311.7379591976904
0.0015                    -0.0235                  311.32304383379045
0.0015                    -0.0225                  311.2050220911631
0.0015                    -0.0215                  310.96121109829545
0.0015                    -0.0205                  310.7441654728068
0.0015                    -0.0195                  310.6391621267397
0.0015                    -0.0185                  310.4703531022259
0.0015                    -0.0175                  310.15934339826055
0.0015                    -0.0165                  309.7343975032296
0.0015                    -0.0155                  309.42335820317777
0.0015                    -0.0145                  308.8499092165201
0.0015                    -0.0135                  307.8905211224567
0.0015                    -0.0125                  306.69149890815055
0.0015                    -0.0115                  305.197588636732
0.0015                    -0.0105                  303.5659174267622
0.0015                    -0.0095                  301.23085293318934
0.0015                    -0.0085                  298.6395538062586
0.0015                    -0.0075                  296.2606932480836
0.0015                    -0.0065                  294.7166486030465
0.0015                    -0.0055                  293.8921563358713
0.0015                    -0.0045                  293.2029324327302
0.0015                    -0.0035                  293.15938032050383
0.0015                    -0.0025                  293.1534854814784
0.0015                    -0.0015                  293.1502113502691
0.0015                    -5.0E-4                  293.1520147140001
0.0015                    5.0E-4                   293.1529820509552
0.0015                    0.0015                   293.1526946554383
0.0015                    0.0025                   293.14883518223417
0.0015                    0.0035                   293.143763411493
0.0015                    0.0045                   293.1479880359384
0.0015                    0.0055                   293.25337105637004
0.0015                    0.0065                   293.393325096196
0.0015                    0.0075                   293.74326910171
0.0015                    0.0085                   294.35056137653044
0.0015                    0.0095                   294.63858786263535
0.0015                    0.0105                   294.9724785089946
0.0015                    0.0115                   295.68428394426587
0.0015                    0.0125                   296.43738267231845
0.0015                    0.0135                   297.1265676525132
0.0015                    0.0145                   297.70102760178924
0.0015                    0.0155                   298.4292613194204
0.0015                    0.0165                   299.05260202001625
0.0015                    0.0175                   299.41092231198434
0.0015                    0.0185                   299.7466473063757
0.0015                    0.0195                   300.0065243315252
0.0015                    0.0205                   300.1935416937856
0.0015                    0.0215                   300.4045183558605
0.0015                    0.0225                   300.5708935121731
0.0015                    0.0235                   300.66602451546646
0.0015                    0.0245                   300.9538090152101
0.0015                    0.0255                   301.2393645312818
0.0015                    0.0265                   301.44695713609457
0.0015                    0.0275                   302.1171869924798
0.0015                    0.0285                   302.9803871970619
0.0015                    0.0295                   303.8236834865143
0.0015                    0.0305                   304.8842728855159
0.0015                    0.0315                   306.0835459676108
0.0025                    -0.0315                  319.5460577866791
0.0025                    -0.0305                  317.98807407678913
0.0025                    -0.0295                  316.27859367733714
0.0025                    -0.0285                  314.39958154674235
0.0025                    -0.0275                  312.9116099067642
0.0025                    -0.0265                  312.3942559818222
0.0025                    -0.0255                  311.8911582404081
0.0025                    -0.0245                  311.52233487885576
0.0025                    -0.0235                  311.39006111312943
0.0025                    -0.0225                  311.2460090936276
0.0025                    -0.0215                  311.1372356808082
0.0025                    -0.0205                  311.0370160705491
0.0025                    -0.0195                  310.93679646028994
0.0025                    -0.0185                  310.80476993412856
0.0025                    -0.0175                  310.383966361591
0.0025                    -0.0165                  309.9631627890534
0.0025                    -0.0155                  309.4239561727058
0.0025                    -0.0145                  308.45639647427925
0.0025                    -0.0135                  307.49815869353256
0.0025                    -0.0125                  306.454919923132
0.0025                    -0.0115                  304.8226956411712
0.0025                    -0.0105                  303.19001300992716
0.0025                    -0.0095                  301.59230128691195
0.0025                    -0.0085                  299.211114445828
0.0025                    -0.0075                  296.82992760474406
0.0025                    -0.0065                  294.866144976203
0.0025                    -0.0055                  294.16935765082815
0.0025                    -0.0045                  293.4725703254534
0.0025                    -0.0035                  293.16412948542734
0.0025                    -0.0025                  293.1581674496001
0.0025                    -0.0015                  293.15220541377283
0.0025                    -5.0E-4                  293.1535853419896
0.0025                    5.0E-4                   293.15455723251944
0.0025                    0.0015                   293.15411251256444
0.0025                    0.0025                   293.1490390283524
0.0025                    0.0035                   293.14396554414026
0.0025                    0.0045                   293.1879976709615
0.0025                    0.0055                   293.2940905272871
0.0025                    0.0065                   293.4001833836126
0.0025                    0.0075                   293.89312036410274
0.0025                    0.0085                   294.5040633470737
0.0025                    0.0095                   295.13273913296285
0.0025                    0.0105                   295.85692305817213
0.0025                    0.0115                   296.56958902448355
0.0025                    0.0125                   297.26266230372323
0.0025                    0.0135                   297.8360088300328
0.0025                    0.0145                   298.41363582518915
0.0025                    0.0155                   298.98661389949626
0.0025                    0.0165                   299.35251754214863
0.0025                    0.0175                   299.7118765406444
0.0025                    0.0185                   300.08341775340216
0.0025                    0.0195                   300.27836297156693
0.0025                    0.0205                   300.4652229754552
0.0025                    0.0215                   300.6555057400033
0.0025                    0.0225                   300.7624765212894
0.0025                    0.0235                   300.86933040725853
0.0025                    0.0245                   300.9445961556634
0.0025                    0.0255                   301.10670067516884
0.0025                    0.0265                   301.2881555126325
0.0025                    0.0275                   301.5986558737839
0.0025                    0.0285                   302.4411479406771
0.0025                    0.0295                   303.28105703361734
0.0025                    0.0305                   304.2736766384668
0.0025                    0.0315                   305.4383650216958
0.0035                    -0.0315                  318.5620436903919
0.0035                    -0.0305                  316.8113041051829
0.0035                    -0.0295                  315.16265483069094
0.0035                    -0.0285                  313.4784522011659
0.0035                    -0.0275                  312.90121053552554
0.0035                    -0.0265                  312.3390537723915
0.0035                    -0.0255                  311.83595603097746
0.0035                    -0.0245                  311.8867023926931
0.0035                    -0.0235                  311.87773755861616
0.0035                    -0.0225                  311.73368553911433
0.0035                    -0.0215                  311.89660105400884
0.0035                    -0.0205                  311.99143081236315
0.0035                    -0.0195                  311.891211202104
0.0035                    -0.0185                  311.5776537140523
0.0035                    -0.0175                  311.1787416729802
0.0035                    -0.0165                  310.7579381004426
0.0035                    -0.0155                  309.5623487722538
0.0035                    -0.0145                  308.2991221662834
0.0035                    -0.0135                  307.3408843855367
0.0035                    -0.0125                  305.87580763401087
0.0035                    -0.0115                  304.2571056393842
0.0035                    -0.0105                  302.6244230081402
0.0035                    -0.0095                  301.18371095166674
0.0035                    -0.0085                  299.34897108160004
0.0035                    -0.0075                  296.96778424051615
0.0035                    -0.0065                  295.1971263991186
0.0035                    -0.0055                  294.103402369028
0.0035                    -0.0045                  293.5015799083063
0.0035                    -0.0035                  293.1929013490903
0.0035                    -0.0025                  293.152973342736
0.0035                    -0.0015                  293.1526128205476
0.0035                    -5.0E-4                  293.156264745246
0.0035                    5.0E-4                   293.1572366357758
0.0035                    0.0015                   293.15412925579426
0.0035                    0.0025                   293.14975257291843
0.0035                    0.0035                   293.15038807869666
0.0035                    0.0045                   293.1758860795353
0.0035                    0.0055                   293.26616970884436
0.0035                    0.0065                   293.4761033488618
0.0035                    0.0075                   293.83316611118
0.0035                    0.0085                   294.444109094151
0.0035                    0.0095                   295.2272722078366
0.0035                    0.0105                   296.0499471279088
0.0035                    0.0115                   296.76261309422017
0.0035                    0.0125                   297.31600047818824
0.0035                    0.0135                   297.83826690679933
0.0035                    0.0145                   298.41589390195566
0.0035                    0.0155                   298.9544538274172
0.0035                    0.0165                   299.42114286479193
0.0035                    0.0175                   299.7805018632878
0.0035                    0.0185                   300.2431392185486
0.0035                    0.0195                   300.6316387195719
0.0035                    0.0205                   300.81849872346027
0.0035                    0.0215                   301.03048460562223
0.0035                    0.0225                   301.2032857130379
0.0035                    0.0235                   301.310139599007
0.0035                    0.0245                   301.2524615385366
0.0035                    0.0255                   301.34293332397
0.0035                    0.0265                   301.49954223976465
0.0035                    0.0275                   301.59421796507013
0.0035                    0.0285                   301.9239896662823
0.0035                    0.0295                   302.729905498065
0.0035                    0.0305                   303.75302454656406
0.0035                    0.0315                   304.9349107601407
0.0045                    -0.0315                  317.7893328326148
0.0045                    -0.0305                  315.93910399873835
0.0045                    -0.0295                  314.13907365538256
0.0045                    -0.0285                  313.464061496249
0.0045                    -0.0275                  312.8875514244809
0.0045                    -0.0265                  312.31104135271283
0.0045                    -0.0255                  312.1765057911085
0.0045                    -0.0245                  312.2510699065304
0.0045                    -0.0235                  312.3256340219523
0.0045                    -0.0225                  312.3980970517176
0.0045                    -0.0215                  312.6416336954401
0.0045                    -0.0205                  312.8851703391624
0.0045                    -0.0195                  312.7355196874676
0.0045                    -0.0185                  312.35048834299204
0.0045                    -0.0175                  311.96545699851646
0.0045                    -0.0165                  311.1425617963121
0.0045                    -0.0155                  309.70074137180177
0.0045                    -0.0145                  308.2589209472915
0.0045                    -0.0135                  306.90689035257003
0.0045                    -0.0125                  305.2966953448897
0.0045                    -0.0115                  303.6865003372095
0.0045                    -0.0105                  302.1673072791069
0.0045                    -0.0095                  300.77073218537714
0.0045                    -0.0085                  299.37415709164736
0.0045                    -0.0075                  297.48408820946884
0.0045                    -0.0065                  295.7233748483458
0.0045                    -0.0055                  294.0374470872279
0.0045                    -0.0045                  293.66806180669846
0.0045                    -0.0035                  293.3593832474824
0.0045                    -0.0025                  293.14917273805605
0.0045                    -0.0015                  293.1534195270066
0.0045                    -5.0E-4                  293.1576663159571
0.0045                    5.0E-4                   293.1577746141514
0.0045                    0.0015                   293.15405827978987
0.0045                    0.0025                   293.1503419454284
0.0045                    0.0035                   293.16919092407414
0.0045                    0.0045                   293.1946889249127
0.0045                    0.0055                   293.24892017525264
0.0045                    0.0065                   293.5817692413797
0.0045                    0.0075                   293.91461830750677
0.0045                    0.0085                   294.44921268082965
0.0045                    0.0095                   295.32180528271044
0.0045                    0.0105                   296.1943978845911
0.0045                    0.0115                   296.8747557580217
0.0045                    0.0125                   297.36933865265325
0.0045                    0.0135                   297.86392154728486
0.0045                    0.0145                   298.39873627427545
0.0045                    0.0155                   298.92229375533816
0.0045                    0.0165                   299.4458512364008
0.0045                    0.0175                   299.8991235191374
0.0045                    0.0185                   300.40286068369517
0.0045                    0.0195                   300.90659784825283
0.0045                    0.0205                   301.18408377742173
0.0045                    0.0215                   301.4054634712411
0.0045                    0.0225                   301.62684316506045
0.0045                    0.0235                   301.65048909982306
0.0045                    0.0245                   301.5817047418833
0.0045                    0.0255                   301.5573830782854
0.0045                    0.0265                   301.62365703699174
0.0045                    0.0275                   301.73013467250877
0.0045                    0.0285                   302.059906373721
0.0045                    0.0295                   302.3896780749333
0.0045                    0.0305                   303.32085975377925
0.0045                    0.0315                   304.57200926883274
0.0055                    -0.0315                  317.0166219748376
0.0055                    -0.0305                  315.53864413095016
0.0055                    -0.0295                  314.090103346152
0.0055                    -0.0285                  313.42705364637226
0.0055                    -0.0275                  312.8420939377515
0.0055                    -0.0265                  312.4880234324561
0.0055                    -0.0255                  312.63576079869154
0.0055                    -0.0245                  312.69876487698235
0.0055                    -0.0235                  312.8007847584672
0.0055                    -0.0225                  313.310321094787
0.0055                    -0.0215                  313.5494462403141
0.0055                    -0.0205                  313.78857138584124
0.0055                    -0.0195                  313.6126966995742
0.0055                    -0.0185                  313.2304697711004
0.0055                    -0.0175                  312.8048425017087
0.0055                    -0.0165                  311.27500506149755
0.0055                    -0.0155                  309.83309528863686
0.0055                    -0.0145                  308.3373383374597
0.0055                    -0.0135                  306.188902609735
0.0055                    -0.0125                  304.5780439478268
0.0055                    -0.0115                  303.04847948783527
0.0055                    -0.0105                  302.1330326365025
0.0055                    -0.0095                  300.74032625731445
0.0055                    -0.0085                  299.28299540385854
0.0055                    -0.0075                  297.57665316218083
0.0055                    -0.0065                  295.8086865397469
0.0055                    -0.0055                  294.35783343593454
0.0055                    -0.0045                  293.6750664250658
0.0055                    -0.0035                  293.3637619493064
0.0055                    -0.0025                  293.1829193489006
0.0055                    -0.0015                  293.1529744296521
0.0055                    -5.0E-4                  293.1571535217576
0.0055                    5.0E-4                   293.15980027091734
0.0055                    0.0015                   293.15610263710346
0.0055                    0.0025                   293.1545031289801
0.0055                    0.0035                   293.1647143384666
0.0055                    0.0045                   293.1906075979902
0.0055                    0.0055                   293.2724482960405
0.0055                    0.0065                   293.5308503588528
0.0055                    0.0075                   293.8673494290988
0.0055                    0.0085                   294.44603775437986
0.0055                    0.0095                   295.2965446946186
0.0055                    0.0105                   296.1721189214716
0.0055                    0.0115                   296.65990224237555
0.0055                    0.0125                   297.1578868055458
0.0055                    0.0135                   297.65587136871596
0.0055                    0.0145                   298.04748701629717
0.0055                    0.0155                   298.574547140242
0.0055                    0.0165                   299.1016072641868
0.0055                    0.0175                   299.81715607880864
0.0055                    0.0185                   300.3219977369388
0.0055                    0.0195                   300.826839395069
0.0055                    0.0205                   301.50372648947007
0.0055                    0.0215                   301.72258193724156
0.0055                    0.0225                   301.9252460237919
0.0055                    0.0235                   302.0032140534058
0.0055                    0.0245                   301.93665128842395
0.0055                    0.0255                   301.8661876774808
0.0055                    0.0265                   301.79232414029485
0.0055                    0.0275                   301.8660513799474
0.0055                    0.0285                   302.1580053483192
0.0055                    0.0295                   302.4326004810432
0.0055                    0.0305                   303.2431382876173
0.0055                    0.0315                   304.2093248198497
0.0065                    -0.0315                  316.9395963062033
0.0065                    -0.0305                  315.48967382171963
0.0065                    -0.0295                  314.0845648381925
0.0065                    -0.0285                  313.44131130133775
0.0065                    -0.0275                  312.79805776448296
0.0065                    -0.0265                  312.9008010191027
0.0065                    -0.0255                  313.0577898382051
0.0065                    -0.0245                  313.1591953824636
0.0065                    -0.0235                  313.5677740605491
0.0065                    -0.0225                  314.1394949320604
0.0065                    -0.0215                  314.535646908128
0.0065                    -0.0205                  314.5662569404664
0.0065                    -0.0195                  314.44078473465686
0.0065                    -0.0185                  314.16131124753065
0.0065                    -0.0175                  313.00031541180147
0.0065                    -0.0165                  311.4555670372598
0.0065                    -0.0155                  309.96310155322317
0.0065                    -0.0145                  307.95368522589456
0.0065                    -0.0135                  305.7107383478649
0.0065                    -0.0125                  303.8105290479728
0.0065                    -0.0115                  302.79714612881355
0.0065                    -0.0105                  301.9933623390941
0.0065                    -0.0095                  300.83210288011543
0.0065                    -0.0085                  299.1993851235163
0.0065                    -0.0075                  297.52047763969574
0.0065                    -0.0065                  295.79956685099063
0.0065                    -0.0055                  294.75571760113206
0.0065                    -0.0045                  293.7118683512735
0.0065                    -0.0035                  293.38990427104244
0.0065                    -0.0025                  293.25973502335023
0.0065                    -0.0015                  293.15231363240633
0.0065                    -5.0E-4                  293.1557233546635
0.0065                    5.0E-4                   293.1586348947511
0.0065                    0.0015                   293.15843591933105
0.0065                    0.0025                   293.1601939584665
0.0065                    0.0035                   293.16218514187995
0.0065                    0.0045                   293.2062186689197
0.0065                    0.0055                   293.31698594766465
0.0065                    0.0065                   293.4470916920531
0.0065                    0.0075                   293.92010106961453
0.0065                    0.0085                   294.5366778170012
0.0065                    0.0095                   295.23529997477783
0.0065                    0.0105                   295.873190392999
0.0065                    0.0115                   296.356756461781