% Model:              SIMBench260525.mph
% Version:            COMSOL 6.2.0.339
% Date:               May 27 2026, 18:02
% Dimension:          2
% Nodes:              4096
% Expressions:        1
% Description:        温度
% Length unit:        m
% x                       y                        T (K)
% mirrored_by_python_y_to_minus_y, coord_match_decimals=12
0.0005 -0.0315 308.138023471
0.0005 -0.0305 307.323978462
0.0005 -0.0295 306.509933453
0.0005 -0.0285 304.949494762
0.0005 -0.0275 302.758057238
0.0005 -0.0265 300.566619715
0.0005 -0.0255 299.480524467
0.0005 -0.0245 297.622042682
0.0005 -0.0235 295.763560896
0.0005 -0.0225 294.795692573
0.0005 -0.0215 294.482687483
0.0005 -0.0205 294.169682393
0.0005 -0.0195 293.636866213
0.0005 -0.0185 293.397082299
0.0005 -0.0175 293.170109603
0.0005 -0.0165 293.123223953
0.0005 -0.0155 293.157587968
0.0005 -0.0145 293.790793384
0.0005 -0.0135 296.006003037
0.0005 -0.0125 298.352595042
0.0005 -0.0115 303.256227595
0.0005 -0.0105 304.526767792
0.0005 -0.0095 305.797307989
0.0005 -0.0085 311.693042143
0.0005 -0.0075 320.26019544
0.0005 -0.0065 328.827348738
0.0005 -0.0055 332.32636818
0.0005 -0.0045 336.892811752
0.0005 -0.0035 341.422137286
0.0005 -0.0025 342.216055916
0.0005 -0.0015 343.38813218
0.0005 -0.0005 344.473681454
0.0005 0.0005 344.581143871
0.0005 0.0015 344.804906533
0.0005 0.0025 344.98607734
0.0005 0.0035 345.008857755
0.0005 0.0045 345.124069808
0.0005 0.0055 345.234648116
0.0005 0.0065 345.406127167
0.0005 0.0075 345.632088175
0.0005 0.0085 345.904314502
0.0005 0.0095 346.330660525
0.0005 0.0105 346.773249553
0.0005 0.0115 347.330138206
0.0005 0.0125 347.784110131
0.0005 0.0135 348.108637545
0.0005 0.0145 348.703480352
0.0005 0.0155 349.317270891
0.0005 0.0165 349.82250023
0.0005 0.0175 350.448096551
0.0005 0.0185 351.1222703
0.0005 0.0195 351.779933972
0.0005 0.0205 352.477720045
0.0005 0.0215 353.345405746
0.0005 0.0225 354.227392667
0.0005 0.0235 355.068666162
0.0005 0.0245 356.526689521
0.0005 0.0255 358.007595865
0.0005 0.0265 359.723890279
0.0005 0.0275 362.432830091
0.0005 0.0285 365.141769903
0.0005 0.0295 367.961035252
0.0005 0.0305 369.706209381
0.0005 0.0315 371.446204442
0.0015 -0.0315 306.624351483
0.0015 -0.0305 305.825518918
0.0015 -0.0295 304.760993681
0.0015 -0.0285 303.16310032
0.0015 -0.0275 301.144202846
0.0015 -0.0265 299.6276493
0.0015 -0.0255 299.181950303
0.0015 -0.0245 297.885917103
0.0015 -0.0235 296.4219586
0.0015 -0.0225 295.491935386
0.0015 -0.0215 294.982312135
0.0015 -0.0205 294.45892175
0.0015 -0.0195 293.760299226
0.0015 -0.0185 293.383863594
0.0015 -0.0175 293.21428909
0.0015 -0.0165 293.069832439
0.0015 -0.0155 293.122801136
0.0015 -0.0145 294.486613709
0.0015 -0.0135 296.111465511
0.0015 -0.0125 299.903043046
0.0015 -0.0115 306.971975284
0.0015 -0.0105 310.822363167
0.0015 -0.0095 314.25280881
0.0015 -0.0085 319.991735625
0.0015 -0.0075 327.536683883
0.0015 -0.0065 332.680083516
0.0015 -0.0055 335.140295362
0.0015 -0.0045 339.100598136
0.0015 -0.0035 341.145514871
0.0015 -0.0025 341.695003906
0.0015 -0.0015 342.728746833
0.0015 -0.0005 343.09840758
0.0015 0.0005 343.107266952
0.0015 0.0015 343.29732037
0.0015 0.0025 343.292254709
0.0015 0.0035 343.212859097
0.0015 0.0045 343.310253122
0.0015 0.0055 343.407082945
0.0015 0.0065 343.499890022
0.0015 0.0075 343.722189877
0.0015 0.0085 344.098248011
0.0015 0.0095 344.495248721
0.0015 0.0105 344.937837749
0.0015 0.0115 345.700801986
0.0015 0.0125 346.444057372
0.0015 0.0135 346.772379735
0.0015 0.0145 347.769533175
0.0015 0.0155 348.698830931
0.0015 0.0165 349.222313722
0.0015 0.0175 349.984678683
0.0015 0.0185 350.726773014
0.0015 0.0195 351.394631226
0.0015 0.0205 352.127412621
0.0015 0.0215 352.896866638
0.0015 0.0225 353.765206141
0.0015 0.0235 354.579385023
0.0015 0.0245 355.591605935
0.0015 0.0255 357.167475267
0.0015 0.0265 358.954804359
0.0015 0.0275 361.06796477
0.0015 0.0285 363.997463614
0.0015 0.0295 367.187220741
0.0015 0.0305 369.381721527
0.0015 0.0315 370.93144222
0.0025 -0.0315 305.110363615
0.0025 -0.0305 304.074247255
0.0025 -0.0295 302.723984712
0.0025 -0.0285 301.214066896
0.0025 -0.0275 299.530348453
0.0025 -0.0265 299.045630401
0.0025 -0.0255 298.599931405
0.0025 -0.0245 298.16226731
0.0025 -0.0235 297.216586433
0.0025 -0.0225 296.270905556
0.0025 -0.0215 295.358661441
0.0025 -0.0205 294.653030299
0.0025 -0.0195 293.947399158
0.0025 -0.0185 293.389276505
0.0025 -0.0175 293.244212814
0.0025 -0.0165 293.099149123
0.0025 -0.0155 293.676869192
0.0025 -0.0145 295.043852957
0.0025 -0.0135 296.410836721
0.0025 -0.0125 302.252121108
0.0025 -0.0115 309.335400095
0.0025 -0.0105 316.613367802
0.0025 -0.0095 322.634382632
0.0025 -0.0085 328.386466309
0.0025 -0.0075 333.343748822
0.0025 -0.0065 335.812412882
0.0025 -0.0055 338.281076943
0.0025 -0.0045 340.190441992
0.0025 -0.0035 340.741579324
0.0025 -0.0025 341.292716657
0.0025 -0.0015 341.625653341
0.0025 -0.0005 341.634628527
0.0025 0.0005 341.643603713
0.0025 0.0015 341.601141319
0.0025 0.0025 341.521646297
0.0025 0.0035 341.442151274
0.0025 0.0045 341.419859453
0.0025 0.0055 341.512432665
0.0025 0.0065 341.605005877
0.0025 0.0075 341.819850076
0.0025 0.0085 342.214462436
0.0025 0.0095 342.609074796
0.0025 0.0105 343.188772371
0.0025 0.0115 343.966275289
0.0025 0.0125 344.743778207
0.0025 0.0135 345.697599433
0.0025 0.0145 346.690657994
0.0025 0.0155 347.683716554
0.0025 0.0165 348.75860251
0.0025 0.0175 349.520959629
0.0025 0.0185 350.283316749
0.0025 0.0195 351.27122325
0.0025 0.0205 352.012126929
0.0025 0.0215 352.753030608
0.0025 0.0225 353.501954943
0.0025 0.0235 354.344654206
0.0025 0.0245 355.187353468
0.0025 0.0255 356.507489931
0.0025 0.0265 358.305782687
0.0025 0.0275 360.172986376
0.0025 0.0285 363.082370037
0.0025 0.0295 366.302913051
0.0025 0.0305 368.655269579
0.0025 0.0315 370.416679998
0.0035 -0.0315 303.122379961
0.0035 -0.0305 301.795416315
0.0035 -0.0295 300.479465857
0.0035 -0.0285 299.170614122
0.0035 -0.0275 298.742144462
0.0035 -0.0265 298.440374963
0.0035 -0.0255 297.992854385
0.0035 -0.0245 297.774183511
0.0035 -0.0235 297.238015471
0.0035 -0.0225 296.292334594
0.0035 -0.0215 295.372892812
0.0035 -0.0205 294.553818433
0.0035 -0.0195 293.848187291
0.0035 -0.0185 293.447841569
0.0035 -0.0175 293.197462424
0.0035 -0.0165 293.164680836
0.0035 -0.0155 293.694892429
0.0035 -0.0145 294.880777748
0.0035 -0.0135 297.777472306
0.0035 -0.0125 302.951287693
0.0035 -0.0115 310.03456668
0.0035 -0.0105 318.556548278
0.0035 -0.0095 326.83874043
0.0035 -0.0085 332.590824108
0.0035 -0.0075 334.714608351
0.0035 -0.0065 336.371748884
0.0035 -0.0055 338.840412944
0.0035 -0.0045 339.14675415
0.0035 -0.0035 339.389063673
0.0035 -0.0025 339.940201006
0.0035 -0.0015 339.651196306
0.0035 -0.0005 339.492682211
0.0035 0.0005 339.501657396
0.0035 0.0015 339.293369549
0.0035 0.0025 339.162306224
0.0035 0.0035 339.085197235
0.0035 0.0045 339.055039942
0.0035 0.0055 339.1074144
0.0035 0.0065 339.211887983
0.0035 0.0075 339.411356884
0.0035 0.0085 339.753635392
0.0035 0.0095 340.180846315
0.0035 0.0105 340.765919032
0.0035 0.0115 341.501633148
0.0035 0.0125 342.389327416
0.0035 0.0135 343.656552944
0.0035 0.0145 344.699074766
0.0035 0.0155 346.007395803
0.0035 0.0165 348.103557533
0.0035 0.0175 349.055515532
0.0035 0.0185 350.245564159
0.0035 0.0195 352.231483601
0.0035 0.0205 353.102237925
0.0035 0.0215 353.742242816
0.0035 0.0225 354.240209466
0.0035 0.0235 355.064063945
0.0035 0.0245 355.70294642
0.0035 0.0255 356.147532821
0.0035 0.0265 357.871793419
0.0035 0.0275 360.099126096
0.0035 0.0285 362.490690582
0.0035 0.0295 365.539339255
0.0035 0.0305 367.560860976
0.0035 0.0315 369.658496298
0.0045 -0.0315 301.481768765
0.0045 -0.0305 299.885538018
0.0045 -0.0295 298.808015924
0.0045 -0.0285 298.357225775
0.0045 -0.0275 297.934815078
0.0045 -0.0265 297.686566419
0.0045 -0.0255 297.428087446
0.0045 -0.0245 297.379458985
0.0045 -0.0235 297.259444508
0.0045 -0.0225 296.326581748
0.0045 -0.0215 295.413071774
0.0045 -0.0205 294.4995618
0.0045 -0.0195 293.921784172
0.0045 -0.0185 293.543426968
0.0045 -0.0175 293.165069763
0.0045 -0.0165 293.508808106
0.0045 -0.0155 294.039019698
0.0045 -0.0145 294.71770254
0.0045 -0.0135 299.711504246
0.0045 -0.0125 304.798209157
0.0045 -0.0115 311.173729229
0.0045 -0.0105 320.499728755
0.0045 -0.0095 329.82572828
0.0045 -0.0085 334.990725611
0.0045 -0.0075 336.111703366
0.0045 -0.0065 337.232681121
0.0045 -0.0055 338.204561216
0.0045 -0.0045 338.161185476
0.0045 -0.0035 338.117809737
0.0045 -0.0025 338.097749971
0.0045 -0.0015 337.736969243
0.0045 -0.0005 337.376188515
0.0045 0.0005 337.227558546
0.0045 0.0015 337.015689218
0.0045 0.0025 336.80381989
0.0045 0.0035 336.756160733
0.0045 0.0045 336.72600344
0.0045 0.0055 336.702396134
0.0045 0.0065 336.872427363
0.0045 0.0075 337.071896263
0.0045 0.0085 337.292808349
0.0045 0.0095 337.836698994
0.0045 0.0105 338.421771712
0.0045 0.0115 339.036991008
0.0045 0.0125 340.225488403
0.0045 0.0135 341.492713931
0.0045 0.0145 342.707491539
0.0045 0.0155 344.689587246
0.0045 0.0165 346.785748976
0.0045 0.0175 348.590071435
0.0045 0.0185 350.527500564
0.0045 0.0195 352.513420006
0.0045 0.0205 354.185851305
0.0045 0.0215 354.683817955
0.0045 0.0225 355.181784604
0.0045 0.0235 355.745290012
0.0045 0.0245 356.189876413
0.0045 0.0255 356.634462815
0.0045 0.0265 357.63956794
0.0045 0.0275 360.034005748
0.0045 0.0285 362.428443556
0.0045 0.0295 364.830831174
0.0045 0.0305 367.066975578
0.0045 0.0315 369.364805749
0.0055 -0.0315 299.862044505
0.0055 -0.0305 298.93349944
0.0055 -0.0295 298.130497415
0.0055 -0.0285 297.599195386
0.0055 -0.0275 297.130121804
0.0055 -0.0265 297.1232955
0.0055 -0.0255 297.110705437
0.0055 -0.0245 297.041439039
0.0055 -0.0235 297.002167453
0.0055 -0.0225 296.300345433
0.0055 -0.0215 295.366168936
0.0055 -0.0205 294.431992439
0.0055 -0.0195 293.876200682
0.0055 -0.0185 293.495389005
0.0055 -0.0175 293.255794279
0.0055 -0.0165 293.518094886
0.0055 -0.0155 294.0498151
0.0055 -0.0145 295.742762478
0.0055 -0.0135 299.803761898
0.0055 -0.0125 304.908467587
0.0055 -0.0115 313.441190173
0.0055 -0.0105 322.825528592
0.0055 -0.0095 332.147620145
0.0055 -0.0085 334.959064112
0.0055 -0.0075 336.096033765
0.0055 -0.0065 337.145188055
0.0055 -0.0055 337.168295843
0.0055 -0.0045 337.125414368
0.0055 -0.0035 337.058926704
0.0055 -0.0025 336.817874543
0.0055 -0.0015 336.455316728
0.0055 -0.0005 336.139545328
0.0055 0.0005 335.976692418
0.0055 0.0015 335.765582204
0.0055 0.0025 335.583570384
0.0055 0.0035 335.506565432
0.0055 0.0045 335.477455983
0.0055 0.0055 335.435861881
0.0055 0.0065 335.484610788
0.0055 0.0075 335.685231502
0.0055 0.0085 335.814148224
0.0055 0.0095 336.109522549
0.0055 0.0105 336.696931747
0.0055 0.0115 337.139431239
0.0055 0.0125 337.935765518
0.0055 0.0135 339.201965158
0.0055 0.0145 340.315404959
0.0055 0.0155 341.902141583
0.0055 0.0165 343.978316228
0.0055 0.0175 346.344674517
0.0055 0.0185 348.569640393
0.0055 0.0195 350.525064247
0.0055 0.0205 353.567525821
0.0055 0.0215 355.338889598
0.0055 0.0225 355.835969663
0.0055 0.0235 356.641222807
0.0055 0.0245 357.259985264
0.0055 0.0255 357.75206516
0.0055 0.0265 358.327430733
0.0055 0.0275 360.059016056
0.0055 0.0285 362.479497973
0.0055 0.0295 365.154440591
0.0055 0.0305 367.106323006
0.0055 0.0315 369.071115199
0.0065 -0.0315 299.174870262
0.0065 -0.0305 298.276463949
0.0065 -0.0295 297.461088577
0.0065 -0.0285 297.062076543
0.0065 -0.0275 296.892834658
0.0065 -0.0265 296.828867241
0.0065 -0.0255 296.806107904
0.0065 -0.0245 296.79679599
0.0065 -0.0235 296.881352886
0.0065 -0.0225 296.165235228
0.0065 -0.0215 295.262210754
0.0065 -0.0205 294.469967383
0.0065 -0.0195 293.896255476
0.0065 -0.0185 293.416058629
0.0065 -0.0175 293.444652285
0.0065 -0.0165 293.582397341
0.0065 -0.0155 294.154901154
0.0065 -0.0145 296.895829917
0.0065 -0.0135 299.63675868
0.0065 -0.0125 306.028157349
0.0065 -0.0115 315.668411487
0.0065 -0.0105 325.250436432
0.0065 -0.0095 331.038566783
0.0065 -0.0085 333.643623782
0.0065 -0.0075 335.656046583
0.0065 -0.0065 336.043667482
0.0065 -0.0055 336.078726313
0.0065 -0.0045 336.072472164
0.0065 -0.0035 335.90898594
0.0065 -0.0025 335.70688772
0.0065 -0.0015 335.405140854
0.0065 -0.0005 335.224935865
0.0065 0.0005 335.083789042
0.0065 0.0015 334.894545015
0.0065 0.0025 334.777246173
0.0065 0.0035 334.671859973
0.0065 0.0045 334.623599672
0.0065 0.0055 334.559332317
0.0065 0.0065 334.493185497
0.0065 0.0075 334.640959929
0.0065 0.0085 334.660318217
0.0065 0.0095 334.679676505
0.0065 0.0105 335.16813967
0.0065 0.0115 335.434439249
0.0065 0.0125 335.700738828
0.0065 0.0135 336.834534339
0.0065 0.0145 337.799860868
0.0065 0.0155 338.765187396
0.0065 0.0165 340.85260949
0.0065 0.0175 343.436309118
0.0065 0.0185 346.020008747
0.0065 0.0195 348.459068055
0.0065 0.0205 352.110308756
0.0065 0.0215 355.761549456
0.0065 0.0225 356.575225962
0.0065 0.0235 357.506193047
0.0065 0.0245 358.378861004
0.0065 0.0255 358.901252455
0.0065 0.0265 359.496245086
0.0065 0.0275 360.091237716
0.0065 0.0285 362.752670059
0.0065 0.0295 365.427612677
0.0065 0.0305 367.438842396
0.0065 0.0315 369.342048861
0.0075 -0.0315 298.437981289
0.0075 -0.0305 297.558049831
0.0075 -0.0295 297.026128754
0.0075 -0.0285 296.852013385
0.0075 -0.0275 296.672418639
0.0075 -0.0265 296.608411917
0.0075 -0.0255 296.63066441
0.0075 -0.0245 296.693673132
0.0075 -0.0235 296.760538319
0.0075 -0.0225 296.016422891
0.0075 -0.0215 295.147538316
0.0075 -0.0205 294.436490781
0.0075 -0.0195 293.859230339
0.0075 -0.0185 293.445966762
0.0075 -0.0175 293.548642509
0.0075 -0.0165 293.681342571
0.0075 -0.0155 294.698507911
0.0075 -0.0145 297.438219411
0.0075 -0.0135 300.177930912
0.0075 -0.0125 307.590418853
0.0075 -0.0115 317.245969426
0.0075 -0.0105 326.613492399
0.0075 -0.0095 330.928833256
0.0075 -0.0085 333.497911027
0.0075 -0.0075 335.357690653
0.0075 -0.0065 335.361579418
0.0075 -0.0055 335.383005886
0.0075 -0.0045 335.353944552
0.0075 -0.0035 335.15316857
0.0075 -0.0025 334.94392183
0.0075 -0.0015 334.787234936
0.0075 -0.0005 334.64561017
0.0075 0.0005 334.503896678
0.0075 0.0015 334.384573463
0.0075 0.0025 334.279368938
0.0075 0.0035 334.174164412
0.0075 0.0045 334.065818043
0.0075 0.0055 333.999708668
0.0075 0.0065 333.933599293
0.0075 0.0075 333.839551979
0.0075 0.0085 333.859279033
0.0075 0.0095 333.879006087
0.0075 0.0105 333.87554635
0.0075 0.0115 334.14674562
0.0075 0.0125 334.41794489
0.0075 0.0135 334.74081183
0.0075 0.0145 335.720145671
0.0075 0.0155 336.699479512
0.0075 0.0165 337.837041924
0.0075 0.0175 340.414550631
0.0075 0.0185 342.992059338
0.0075 0.0195 345.4956039
0.0075 0.0205 349.101959285
0.0075 0.0215 352.708314669
0.0075 0.0225 356.225415075
0.0075 0.0235 357.433897034
0.0075 0.0245 358.642378994
0.0075 0.0255 360.004468707
0.0075 0.0265 360.552984287
0.0075 0.0275 361.234793503
0.0075 0.0285 363.537958529
0.0075 0.0295 365.841123556
0.0075 0.0305 367.694573878
0.0075 0.0315 369.557665693
0.0085 -0.0315 297.761536258
0.0085 -0.0305 297.233826896
0.0085 -0.0295 296.783844678
0.0085 -0.0285 296.622619195
0.0085 -0.0275 296.461393712
0.0085 -0.0265 296.510536513
0.0085 -0.0255 296.586013691
0.0085 -0.0245 296.653523203
0.0085 -0.0235 296.498555635
0.0085 -0.0225 295.944527449
0.0085 -0.0215 295.092786278
0.0085 -0.0205 294.269191
0.0085 -0.0195 293.691930558
0.0085 -0.0185 293.557915968
0.0085 -0.0175 293.540580103
0.0085 -0.0165 293.86130519
0.0085 -0.0155 295.304054313
0.0085 -0.0145 297.303538217
0.0085 -0.0135 301.976316753
0.0085 -0.0125 309.138744262
0.0085 -0.0115 318.055202933
0.0085 -0.0105 325.662932364
0.0085 -0.0095 332.244855
0.0085 -0.0085 335.012295277
0.0085 -0.0075 335.3614063
0.0085 -0.0065 335.316067341
0.0085 -0.0055 335.33749381
0.0085 -0.0045 335.225258471
0.0085 -0.0035 335.081211662
0.0085 -0.0025 334.876770248
0.0085 -0.0015 334.788726072
0.0085 -0.0005 334.680610797
0.0085 0.0005 334.543905953
0.0085 0.0015 334.448319116
0.0085 0.0025 334.348524663
0.0085 0.0035 334.240184131
0.0085 0.0045 334.116694949
0.0085 0.0055 334.021649913
0.0085 0.0065 333.932757152
0.0085 0.0075 333.767116677
0.0085 0.0085 333.704003221
0.0085 0.0095 333.669840566
0.0085 0.0105 333.497757507
0.0085 0.0115 333.600810481
0.0085 0.0125 333.762116048
0.0085 0.0135 333.710288346
0.0085 0.0145 334.336670486
0.0085 0.0155 335.054821733
0.0085 0.0165 335.388973408
0.0085 0.0175 337.248564734
0.0085 0.0185 339.501099023
0.0085 0.0195 341.447226117
0.0085 0.0205 344.523827285
0.0085 0.0215 349.149327679
0.0085 0.0225 354.360154349
0.0085 0.0235 355.635876354
0.0085 0.0245 357.863057923
0.0085 0.0255 359.717506133
0.0085 0.0265 361.400974488
0.0085 0.0275 362.398305698
0.0085 0.0285 364.555923408
0.0085 0.0295 366.581268659
0.0085 0.0305 368.226145812
0.0085 0.0315 369.801179432
0.0095 -0.0315 297.455104146
0.0095 -0.0305 297.005873187
0.0095 -0.0295 296.541560602
0.0095 -0.0285 296.419921388
0.0095 -0.0275 296.381187204
0.0095 -0.0265 296.449593374
0.0095 -0.0255 296.537454237
0.0095 -0.0245 296.603669941
0.0095 -0.0235 296.139610252
0.0095 -0.0225 295.704149413
0.0095 -0.0215 295.012481649
0.0095 -0.0205 294.217261187
0.0095 -0.0195 293.723441621
0.0095 -0.0185 293.669865173
0.0095 -0.0175 293.605077007
0.0095 -0.0165 294.459627
0.0095 -0.0155 295.885126899
0.0095 -0.0145 297.310626798
0.0095 -0.0135 304.017406745
0.0095 -0.0125 311.209858124
0.0095 -0.0115 318.549398362
0.0095 -0.0105 325.063320157
0.0095 -0.0095 331.577241952
0.0095 -0.0085 335.434049957
0.0095 -0.0075 335.373620663
0.0095 -0.0065 335.31319137
0.0095 -0.0055 335.222339617
0.0095 -0.0045 335.098159104
0.0095 -0.0035 334.978441351
0.0095 -0.0025 334.878261384
0.0095 -0.0015 334.790217208
0.0095 -0.0005 334.702173032
0.0095 0.0005 334.607040599
0.0095 0.0015 334.511453762
0.0095 0.0025 334.415866925
0.0095 0.0035 334.298174737
0.0095 0.0045 334.174685555
0.0095 0.0055 334.051196373
0.0095 0.0065 333.893923023
0.0095 0.0075 333.728282548
0.0095 0.0085 333.562642073
0.0095 0.0095 333.397906127
0.0095 0.0105 333.225823069
0.0095 0.0115 333.054875343
0.0095 0.0125 333.019023124
0.0095 0.0135 332.967195422
0.0095 0.0145 332.943359494
0.0095 0.0155 333.294081416
0.0095 0.0165 333.665293033
0.0095 0.0175 334.091667876
0.0095 0.0185 336.088771198
0.0095 0.0195 338.08587452
0.0095 0.0205 340.026536744
0.0095 0.0215 345.073368122
0.0095 0.0225 350.1201995
0.0095 0.0235 354.945280391
0.0095 0.0245 357.17246196
0.0095 0.0255 359.023053018
0.0095 0.0265 360.855731737
0.0095 0.0275 363.200683368
0.0095 0.0285 365.287535411
0.0095 0.0295 367.312880662
0.0095 0.0305 368.952744286
0.0095 0.0315 370.368997019
0.0105 -0.0315 297.06589922
0.0105 -0.0305 296.630439475
0.0105 -0.0295 296.375366186
0.0105 -0.0285 296.355052059
0.0105 -0.0275 296.316317875
0.0105 -0.0265 296.376768135
0.0105 -0.0255 296.463060322
0.0105 -0.0245 296.433416806
0.0105 -0.0235 295.921497889
0.0105 -0.0225 295.48603705
0.0105 -0.0215 294.814710199
0.0105 -0.0205 294.081073
0.0105 -0.0195 293.703592203
0.0105 -0.0185 293.625422353
0.0105 -0.0175 293.699406476
0.0105 -0.0165 294.503826105
0.0105 -0.0155 295.832529199
0.0105 -0.0145 299.090558873
0.0105 -0.0135 304.41372061
0.0105 -0.0125 311.606171989
0.0105 -0.0115 319.959113233
0.0105 -0.0105 327.516664378
0.0105 -0.0095 333.951526217
0.0105 -0.0085 335.246324184
0.0105 -0.0075 335.558151982
0.0105 -0.0065 335.51447759
0.0105 -0.0055 335.573409275
0.0105 -0.0045 335.467457902
0.0105 -0.0035 335.402511503
0.0105 -0.0025 335.517439027
0.0105 -0.0015 335.426726979
0.0105 -0.0005 335.384759345
0.0105 0.0005 335.426571328
0.0105 0.0015 335.331378678
0.0105 0.0025 335.231853272
0.0105 0.0035 335.122531719
0.0105 0.0045 334.999349177
0.0105 0.0055 334.805718256
0.0105 0.0065 334.552650187
0.0105 0.0075 334.385458171
0.0105 0.0085 334.110105861
0.0105 0.0095 333.787913971
0.0105 0.0105 333.612700145
0.0105 0.0115 333.303501612
0.0105 0.0125 333.027119885
0.0105 0.0135 332.981864115
0.0105 0.0145 332.773466619
0.0105 0.0155 332.748748348
0.0105 0.0165 333.119959965
0.0105 0.0175 333.181079128
0.0105 0.0185 333.913179879
0.0105 0.0195 335.910283201
0.0105 0.0205 337.121239351
0.0105 0.0215 339.491496722
0.0105 0.0225 344.547950844
0.0105 0.0235 349.686699444
0.0105 0.0245 354.81761476
0.0105 0.0255 359.045661045
0.0105 0.0265 361.458382031
0.0105 0.0275 363.794790422
0.0105 0.0285 365.898174175
0.0105 0.0295 368.000168373
0.0105 0.0305 369.396475792
0.0105 0.0315 370.740890057
0.0115 -0.0315 296.730426122
0.0115 -0.0305 296.476922682
0.0115 -0.0295 296.256947774
0.0115 -0.0285 296.248324655
0.0115 -0.0275 296.239701536
0.0115 -0.0265 296.299883259
0.0115 -0.0255 296.382804215
0.0115 -0.0245 296.331172174
0.0115 -0.0235 295.816305134
0.0115 -0.0225 295.301438095
0.0115 -0.0215 294.6965626
0.0115 -0.0205 294.031724067
0.0115 -0.0195 293.691066834
0.0115 -0.0185 293.579570452
0.0115 -0.0175 294.081717464
0.0115 -0.0165 294.886137093
0.0115 -0.0155 296.010507386
0.0115 -0.0145 300.894118463
0.0115 -0.0135 305.777729539
0.0115 -0.0125 312.56953833
0.0115 -0.0115 321.176665593
0.0115 -0.0105 329.783792856
0.0115 -0.0095 333.307737979
0.0115 -0.0085 334.602535947
0.0115 -0.0075 335.7426833
0.0115 -0.0065 335.769053993
0.0115 -0.0055 335.827985678
0.0115 -0.0045 335.8367567
0.0115 -0.0035 335.918538695
0.0115 -0.0025 336.041377057
0.0115 -0.0015 336.076181698
0.0115 -0.0005 336.125490657
0.0115 0.0005 336.185961181
0.0115 0.0015 336.170159355
0.0115 0.0025 336.063886467
0.0115 0.0035 335.957607674
0.0115 0.0045 335.831985131
0.0115 0.0055 335.552963712
0.0115 0.0065 335.273942293
0.0115 0.0075 335.037393488
0.0115 0.0085 334.654148561
0.0115 0.0095 334.270903634
0.0115 0.0105 333.990325498
0.0115 0.0115 333.570214793
0.0115 0.0125 333.150104088
0.0115 0.0135 332.961893602
0.0115 0.0145 332.649089346
0.0115 0.0155 332.336285091
0.0115 0.0165 332.447949871
0.0115 0.0175 332.388174018
0.0115 0.0185 332.328398164
0.0115 0.0195 333.293226911
0.0115 0.0205 334.412232772
0.0115 0.0215 335.531238633
0.0115 0.0225 338.980454496
0.0115 0.0235 343.728157404
0.0115 0.0245 348.475860311
0.0115 0.0255 354.41886092
0.0115 0.0265 360.834961721
0.0115 0.0275 364.388897476
0.0115 0.0285 366.487344275
0.0115 0.0295 368.58517704
0.0115 0.0305 369.919490372
0.0115 0.0315 371.144435361
0.0125 -0.0315 296.557262684
0.0125 -0.0305 296.360857466
0.0125 -0.0295 296.138529361
0.0125 -0.0285 296.148258568
0.0125 -0.0275 296.192418207
0.0125 -0.0265 296.246745678
0.0125 -0.0255 296.304887773
0.0125 -0.0245 296.228927542
0.0125 -0.0235 295.683916415
0.0125 -0.0225 295.11588317
0.0125 -0.0215 294.5909646
0.0125 -0.0205 293.989539777
0.0125 -0.0195 293.688057157
0.0125 -0.0185 293.665261851
0.0125 -0.0175 294.292603626
0.0125 -0.0165 295.084981525
0.0125 -0.0155 297.297999537
0.0125 -0.0145 301.635048063
0.0125 -0.0135 306.629359014
0.0125 -0.0125 314.372342591
0.0125 -0.0115 322.952538488
0.0125 -0.0105 330.670265006
0.0125 -0.0095 334.00079647
0.0125 -0.0085 335.25194593
0.0125 -0.0075 336.196524916
0.0125 -0.0065 336.364367201
0.0125 -0.0055 336.416570931
0.0125 -0.0045 336.67818692
0.0125 -0.0035 336.943387763
0.0125 -0.0025 337.056362885
0.0125 -0.0015 337.369476101
0.0125 -0.0005 337.522655598
0.0125 0.0005 337.582974365
0.0125 0.0015 337.714776756
0.0125 0.0025 337.650825567
0.0125 0.0035 337.547591856
0.0125 0.0045 337.340322638
0.0125 0.0055 337.063398766
0.0125 0.0065 336.784578461
0.0125 0.0075 336.25226953
0.0125 0.0085 335.845075143
0.0125 0.0095 335.449221733
0.0125 0.0105 334.764841578
0.0125 0.0115 334.332859213
0.0125 0.0125 333.900876848
0.0125 0.0135 333.213646689
0.0125 0.0145 332.908275004
0.0125 0.0155 332.602903318
0.0125 0.0165 332.126746615
0.0125 0.0175 332.135983656
0.0125 0.0185 332.145220697
0.0125 0.0195 331.894903439
0.0125 0.0205 332.993972781
0.0125 0.0215 334.026344101
0.0125 0.0225 335.199861398
0.0125 0.0235 337.434002416
0.0125 0.0245 342.134105862
0.0125 0.0255 348.102776475
0.0125 0.0265 354.419915186
0.0125 0.0275 360.675732145
0.0125 0.0285 366.954914508
0.0125 0.0295 369.170185706
0.0125 0.0305 370.497320796
0.0125 0.0315 371.032337003
0.0135 -0.0315 296.34192209
0.0135 -0.0305 296.145697859
0.0135 -0.0295 296.050479637
0.0135 -0.0285 296.110311613
0.0135 -0.0275 296.154471252
0.0135 -0.0265 296.208831493
0.0135 -0.0255 296.24182753
0.0135 -0.0245 296.049540169
0.0135 -0.0235 295.479531874
0.0135 -0.0225 294.911498629
0.0135 -0.0215 294.395282298
0.0135 -0.0205 293.888207059
0.0135 -0.0195 293.8010787
0.0135 -0.0185 293.818083325
0.0135 -0.0175 294.444409808
0.0135 -0.0165 295.258286643
0.0135 -0.0155 298.693395964
0.0135 -0.0145 302.258084724
0.0135 -0.0135 309.021874188
0.0135 -0.0125 316.744667651
0.0135 -0.0115 324.875175809
0.0135 -0.0105 330.063934466
0.0135 -0.0095 334.389369788
0.0135 -0.0085 336.448373806
0.0135 -0.0075 336.820865494
0.0135 -0.0065 337.102215763
0.0135 -0.0055 337.193870376
0.0135 -0.0045 337.735893332
0.0135 -0.0035 338.271387624
0.0135 -0.0025 338.429043567
0.0135 -0.0015 338.924252134
0.0135 -0.0005 339.349843996
0.0135 0.0005 339.434939467
0.0135 0.0015 339.613311346
0.0135 0.0025 339.726550193
0.0135 0.0035 339.578461256
0.0135 0.0045 339.321830261
0.0135 0.0055 339.059005084
0.0135 0.0065 338.657426822
0.0135 0.0075 338.031745201
0.0135 0.0085 337.474599771
0.0135 0.0095 336.930575766
0.0135 0.0105 336.137395293
0.0135 0.0115 335.487314198
0.0135 0.0125 334.897704749
0.0135 0.0135 333.999717224
0.0135 0.0145 333.476036638
0.0135 0.0155 333.004759763
0.0135 0.0165 332.369577152
0.0135 0.0175 332.105338375
0.0135 0.0185 331.943123653
0.0135 0.0195 331.575672014
0.0135 0.0205 331.856345276
0.0135 0.0215 332.480855393
0.0135 0.0225 333.458479129
0.0135 0.0235 335.692620147
0.0135 0.0245 337.781792125
0.0135 0.0255 341.56707349
0.0135 0.0265 347.813624953
0.0135 0.0275 354.069572085
0.0135 0.0285 360.348754448
0.0135 0.0295 366.964889677
0.0135 0.0305 369.916219145
0.0135 0.0315 370.357742805
0.0145 -0.0315 296.165434317
0.0145 -0.0305 296.059628535
0.0145 -0.0295 295.975220774
0.0145 -0.0285 296.041264404
0.0145 -0.0275 296.107308035
0.0145 -0.0265 296.092711053
0.0145 -0.0255 296.061418924
0.0145 -0.0245 295.849526884
0.0145 -0.0235 295.278646364
0.0145 -0.0225 294.726360706
0.0145 -0.0215 294.320484183
0.0145 -0.0205 293.890546064
0.0145 -0.0195 293.851387531
0.0145 -0.0185 293.94061782
0.0145 -0.0175 295.027284132
0.0145 -0.0165 296.291606319
0.0145 -0.0155 299.398422739
0.0145 -0.0145 303.961940875
0.0145 -0.0135 310.769080866
0.0145 -0.0125 318.609187344
0.0145 -0.0115 326.005051531
0.0145 -0.0105 330.383134789
0.0145 -0.0095 334.606105678
0.0145 -0.0085 337.230471205
0.0145 -0.0075 337.512296821
0.0145 -0.0065 337.794122437
0.0145 -0.0055 338.469572371
0.0145 -0.0045 339.00291822
0.0145 -0.0035 339.536264069
0.0145 -0.0025 340.268170078
0.0145 -0.0015 340.748957128
0.0145 -0.0005 341.229744178
0.0145 0.0005 341.659184571
0.0145 0.0015 341.845718679
0.0145 0.0025 342.032252788
0.0145 0.0035 341.939559367
0.0145 0.0045 341.6931795
0.0145 0.0055 341.446799632
0.0145 0.0065 340.814504751
0.0145 0.0075 340.192627933
0.0145 0.0085 339.569834081
0.0145 0.0095 338.586317834
0.0145 0.0105 337.729268827
0.0145 0.0115 336.87221982
0.0145 0.0125 335.883737273
0.0145 0.0135 334.953859686
0.0145 0.0145 334.026926424
0.0145 0.0155 333.37522141
0.0145 0.0165 332.735227736
0.0145 0.0175 332.100045125
0.0145 0.0185 331.788027015
0.0145 0.0195 331.483456395
0.0145 0.0205 331.269862194
0.0145 0.0215 331.252562236
0.0145 0.0225 331.71709686
0.0145 0.0235 333.476889063
0.0145 0.0245 335.121416775
0.0145 0.0255 338.431705634
0.0145 0.0265 342.415332161
0.0145 0.0275 347.550380176
0.0145 0.0285 354.513601925
0.0145 0.0295 361.476823675
0.0145 0.0305 365.179120746
0.0145 0.0315 368.474928575
0.0155 -0.0315 296.069697406
0.0155 -0.0305 295.982019791
0.0155 -0.0295 295.89996191
0.0155 -0.0285 295.964269679
0.0155 -0.0275 296.026274009
0.0155 -0.0265 295.975296854
0.0155 -0.0255 295.884808499
0.0155 -0.0245 295.649513598
0.0155 -0.0235 295.09802313
0.0155 -0.0225 294.564343197
0.0155 -0.0215 294.251159898
0.0155 -0.0205 293.89288507
0.0155 -0.0195 293.927610624
0.0155 -0.0185 294.27405705
0.0155 -0.0175 295.537613044
0.0155 -0.0165 297.300388583
0.0155 -0.0155 300.661230749
0.0155 -0.0145 306.267942261
0.0155 -0.0135 312.107065373
0.0155 -0.0125 319.780877638
0.0155 -0.0115 326.619341098
0.0155 -0.0105 332.345795612
0.0155 -0.0095 336.52548106
0.0155 -0.0085 337.656678476
0.0155 -0.0075 338.363178265
0.0155 -0.0065 338.850792616
0.0155 -0.0055 340.014373519
0.0155 -0.0045 340.801316169
0.0155 -0.0035 341.536353126
0.0155 -0.0025 342.74898259
0.0155 -0.0015 343.404158226
0.0155 -0.0005 344.038724946
0.0155 0.0005 344.899718551
0.0155 0.0015 345.148900282
0.0155 0.0025 345.30461378
0.0155 0.0035 345.431051564
0.0155 0.0045 345.192896848
0.0155 0.0055 344.684356084
0.0155 0.0065 344.008310881
0.0155 0.0075 343.386434063
0.0155 0.0085 342.36764175
0.0155 0.0095 341.161335761
0.0155 0.0105 340.304286753
0.0155 0.0115 339.096795595
0.0155 0.0125 337.831297984
0.0155 0.0135 336.901420398
0.0155 0.0145 335.61828815
0.0155 0.0155 334.510801307
0.0155 0.0165 333.859096293
0.0155 0.0175 332.878022064
0.0155 0.0185 332.065005904
0.0155 0.0195 331.499564104
0.0155 0.0205 331.303760575
0.0155 0.0215 331.229242557
0.0155 0.0225 331.088034562
0.0155 0.0235 331.318740104
0.0155 0.0245 332.461041425
0.0155 0.0255 335.71812334
0.0155 0.0265 339.025248397
0.0155 0.0275 343.011869732
0.0155 0.0285 349.201355714
0.0155 0.0295 355.988757672
0.0155 0.0305 359.701174853
0.0155 0.0315 363.282788671
0.0165 -0.0315 295.963501112
0.0165 -0.0305 295.875823497
0.0165 -0.0295 295.826471962
0.0165 -0.0285 295.882715917
0.0165 -0.0275 295.944720248
0.0165 -0.0265 295.892450586
0.0165 -0.0255 295.758655691
0.0165 -0.0245 295.446297953
0.0165 -0.0235 294.932588028
0.0165 -0.0225 294.402325688
0.0165 -0.0215 294.089142389
0.0165 -0.0205 293.901579782
0.0165 -0.0195 294.263417083
0.0165 -0.0185 294.634889685
0.0165 -0.0175 295.748761026
0.0165 -0.0165 298.041175929
0.0165 -0.0155 301.865750416
0.0165 -0.0145 307.82240668
0.0165 -0.0135 313.779062944