% Model:              SIMBench260525.mph
% Version:            COMSOL 6.2.0.339
% Date:               May 27 2026, 18:12
% Dimension:          2
% Nodes:              4096
% Expressions:        1
% Description:        温度
% Length unit:        m
% x                       y                        T (K)
% mirrored_by_python_y_to_minus_y, coord_match_decimals=12
0.0005 -0.0315 377.510288572
0.0005 -0.0305 376.437461407
0.0005 -0.0295 375.312989011
0.0005 -0.0285 373.064577825
0.0005 -0.0275 370.951182052
0.0005 -0.0265 368.35953032
0.0005 -0.0255 365.644883469
0.0005 -0.0245 363.015217374
0.0005 -0.0235 360.072418078
0.0005 -0.0225 357.072765612
0.0005 -0.0215 354.054293689
0.0005 -0.0205 348.046934389
0.0005 -0.0195 339.467399087
0.0005 -0.0185 331.429794568
0.0005 -0.0175 320.827028295
0.0005 -0.0165 309.71135422
0.0005 -0.0155 300.689080374
0.0005 -0.0145 297.25190893
0.0005 -0.0135 294.020081875
0.0005 -0.0125 293.221913289
0.0005 -0.0115 293.158212021
0.0005 -0.0105 293.137032237
0.0005 -0.0095 293.149058087
0.0005 -0.0085 293.158527369
0.0005 -0.0075 293.154495187
0.0005 -0.0065 293.140112242
0.0005 -0.0055 293.121034172
0.0005 -0.0045 293.138220404
0.0005 -0.0035 293.216354086
0.0005 -0.0025 294.260709038
0.0005 -0.0015 298.522907607
0.0005 -0.0005 303.092516548
0.0005 0.0005 314.082832277
0.0005 0.0015 325.486113853
0.0005 0.0025 336.889395429
0.0005 0.0035 349.875664559
0.0005 0.0045 365.623724808
0.0005 0.0055 381.371785056
0.0005 0.0065 386.018408526
0.0005 0.0075 388.890651183
0.0005 0.0085 391.757451057
0.0005 0.0095 393.954061201
0.0005 0.0105 395.445085833
0.0005 0.0115 397.005742547
0.0005 0.0125 398.702103664
0.0005 0.0135 400.229335633
0.0005 0.0145 401.697620629
0.0005 0.0155 403.21043352
0.0005 0.0165 404.843482356
0.0005 0.0175 406.351503006
0.0005 0.0185 408.173925549
0.0005 0.0195 410.200618912
0.0005 0.0205 412.173877157
0.0005 0.0215 415.015331671
0.0005 0.0225 418.065408201
0.0005 0.0235 421.330619811
0.0005 0.0245 425.673637424
0.0005 0.0255 430.111354817
0.0005 0.0265 435.009564045
0.0005 0.0275 439.565186257
0.0005 0.0285 444.114235441
0.0005 0.0295 448.090720095
0.0005 0.0305 450.115405905
0.0005 0.0315 452.130834545
0.0015 -0.0315 376.053428049
0.0015 -0.0305 375.513767901
0.0015 -0.0295 373.882329617
0.0015 -0.0285 371.501397895
0.0015 -0.0275 369.311623272
0.0015 -0.0265 366.143186999
0.0015 -0.0255 363.078988574
0.0015 -0.0245 360.320738837
0.0015 -0.0235 357.272471119
0.0015 -0.0225 354.250590685
0.0015 -0.0215 351.13103543
0.0015 -0.0205 347.941049702
0.0015 -0.0195 339.891976307
0.0015 -0.0185 332.526366992
0.0015 -0.0175 324.206662273
0.0015 -0.0165 313.395456904
0.0015 -0.0155 303.193336125
0.0015 -0.0145 297.139840732
0.0015 -0.0135 294.908462592
0.0015 -0.0125 293.240571557
0.0015 -0.0115 293.114817857
0.0015 -0.0105 293.144967551
0.0015 -0.0095 293.169000007
0.0015 -0.0085 293.173181515
0.0015 -0.0075 293.167897507
0.0015 -0.0065 293.156903461
0.0015 -0.0055 293.115118852
0.0015 -0.0045 293.060787047
0.0015 -0.0035 293.14235185
0.0015 -0.0025 295.387243775
0.0015 -0.0015 298.259715928
0.0015 -0.0005 305.581308502
0.0015 0.0005 318.95733773
0.0015 0.0015 331.230663115
0.0015 0.0025 342.933385182
0.0015 0.0035 354.939898629
0.0015 0.0045 369.399510748
0.0015 0.0055 379.035294469
0.0015 0.0065 384.500634958
0.0015 0.0075 388.021496644
0.0015 0.0085 390.845498699
0.0015 0.0095 393.6475344
0.0015 0.0105 395.348390379
0.0015 0.0115 397.161100077
0.0015 0.0125 399.065683702
0.0015 0.0135 400.62003737
0.0015 0.0145 401.949742247
0.0015 0.0155 403.252389138
0.0015 0.0165 404.885437973
0.0015 0.0175 406.175868479
0.0015 0.0185 407.521497289
0.0015 0.0195 409.5424048
0.0015 0.0205 411.447689982
0.0015 0.0215 413.559684642
0.0015 0.0225 416.666207918
0.0015 0.0235 420.121193413
0.0015 0.0245 423.828115151
0.0015 0.0255 428.457317406
0.0015 0.0265 433.622251303
0.0015 0.0275 438.582946208
0.0015 0.0285 443.01402695
0.0015 0.0295 447.287479251
0.0015 0.0305 450.025653497
0.0015 0.0315 451.534721834
0.0025 -0.0315 374.596567526
0.0025 -0.0305 373.304074058
0.0025 -0.0295 371.481517698
0.0025 -0.0285 369.309351875
0.0025 -0.0275 366.087789588
0.0025 -0.0265 363.040060672
0.0025 -0.0255 359.992331756
0.0025 -0.0245 356.78083983
0.0025 -0.0235 353.771655765
0.0025 -0.0225 350.845945604
0.0025 -0.0215 347.726184159
0.0025 -0.0205 344.543160139
0.0025 -0.0195 340.589636824
0.0025 -0.0185 333.251359687
0.0025 -0.0175 325.91308255
0.0025 -0.0165 316.43047182
0.0025 -0.0155 306.241819521
0.0025 -0.0145 297.243059844
0.0025 -0.0135 295.576416777
0.0025 -0.0125 293.90977371
0.0025 -0.0115 293.121361276
0.0025 -0.0105 293.151523663
0.0025 -0.0095 293.181686049
0.0025 -0.0085 293.18677546
0.0025 -0.0075 293.181467345
0.0025 -0.0065 293.162436497
0.0025 -0.0055 293.108125929
0.0025 -0.0045 293.05381536
0.0025 -0.0035 293.995843316
0.0025 -0.0025 296.24794806
0.0025 -0.0015 298.500052804
0.0025 -0.0005 309.219725559
0.0025 0.0005 322.642923136
0.0025 0.0015 336.004784142
0.0025 0.0025 348.059484013
0.0025 0.0035 360.061709897
0.0025 0.0045 370.764412482
0.0025 0.0055 376.231336972
0.0025 0.0065 381.698261462
0.0025 0.0075 387.137231722
0.0025 0.0085 389.939279313
0.0025 0.0095 392.741326903
0.0025 0.0105 395.784211489
0.0025 0.0115 397.691219322
0.0025 0.0125 399.598227154
0.0025 0.0135 401.385594568
0.0025 0.0145 402.70090951
0.0025 0.0155 404.016224452
0.0025 0.0165 405.150025291
0.0025 0.0175 406.431096408
0.0025 0.0185 407.712167525
0.0025 0.0195 409.061722457
0.0025 0.0205 410.969675216
0.0025 0.0215 412.877627975
0.0025 0.0225 415.49675308
0.0025 0.0235 418.956313298
0.0025 0.0245 422.415873515
0.0025 0.0255 426.911415881
0.0025 0.0265 432.053794446
0.0025 0.0275 437.223620282
0.0025 0.0285 441.964489247
0.0025 0.0295 446.269823165
0.0025 0.0305 449.129284779
0.0025 0.0315 450.938609124
0.0035 -0.0315 371.508439886
0.0035 -0.0305 369.991920213
0.0035 -0.0295 368.315549204
0.0035 -0.0285 365.513904209
0.0035 -0.0275 361.461464975
0.0035 -0.0265 357.937696278
0.0035 -0.0255 354.64901079
0.0035 -0.0245 350.973865086
0.0035 -0.0235 347.914802421
0.0035 -0.0225 345.262601019
0.0035 -0.0215 342.573766515
0.0035 -0.0205 339.484968265
0.0035 -0.0195 337.992798853
0.0035 -0.0185 332.549728596
0.0035 -0.0175 324.703488086
0.0035 -0.0165 316.064046918
0.0035 -0.0155 305.875394619
0.0035 -0.0145 299.251559549
0.0035 -0.0135 295.323800893
0.0035 -0.0125 293.83361368
0.0035 -0.0115 293.245581804
0.0035 -0.0105 293.152159519
0.0035 -0.0095 293.18302295
0.0035 -0.0085 293.209589711
0.0035 -0.0075 293.204281595
0.0035 -0.0065 293.153586796
0.0035 -0.0055 293.096128863
0.0035 -0.0045 293.145641796
0.0035 -0.0035 293.865824205
0.0035 -0.0025 295.765879438
0.0035 -0.0015 300.21496854
0.0035 -0.0005 308.062537604
0.0035 0.0005 321.485735182
0.0035 0.0015 334.482196722
0.0035 0.0025 347.018780176
0.0035 0.0035 359.02100606
0.0035 0.0045 365.84822258
0.0035 0.0055 371.402160586
0.0035 0.0065 376.869085075
0.0035 0.0075 384.025982901
0.0035 0.0085 389.069188315
0.0035 0.0095 391.871235905
0.0035 0.0105 397.230330801
0.0035 0.0115 400.550447372
0.0035 0.0125 402.487126552
0.0035 0.0135 404.739857739
0.0035 0.0145 406.361183423
0.0035 0.0155 407.520962547
0.0035 0.0165 407.954317377
0.0035 0.0175 409.014313959
0.0035 0.0185 410.006524094
0.0035 0.0195 410.185311419
0.0035 0.0205 411.779469972
0.0035 0.0215 413.4573807
0.0035 0.0225 414.709350463
0.0035 0.0235 417.972654277
0.0035 0.0245 421.467050664
0.0035 0.0255 425.001522465
0.0035 0.0265 430.030287698
0.0035 0.0275 435.397640416
0.0035 0.0285 440.864182003
0.0035 0.0295 445.383025477
0.0035 0.0305 447.689797593
0.0035 0.0315 449.825373012
0.0045 -0.0315 368.087889551
0.0045 -0.0305 366.606419491
0.0045 -0.0295 365.086391939
0.0045 -0.0285 361.048362531
0.0045 -0.0275 356.995710398
0.0045 -0.0265 352.943058266
0.0045 -0.0255 349.208703444
0.0045 -0.0245 345.53355774
0.0045 -0.0235 342.161459055
0.0045 -0.0225 339.679256434
0.0045 -0.0215 337.197053814
0.0045 -0.0205 335.231958559
0.0045 -0.0195 333.739789147
0.0045 -0.0185 331.848097504
0.0045 -0.0175 323.359564615
0.0045 -0.0165 314.839361051
0.0045 -0.0155 307.120374336
0.0045 -0.0145 301.361469693
0.0045 -0.0135 295.602565051
0.0045 -0.0125 294.191668003
0.0045 -0.0115 293.603636127
0.0045 -0.0105 293.152904701
0.0045 -0.0095 293.184455682
0.0045 -0.0085 293.216006662
0.0045 -0.0075 293.205141439
0.0045 -0.0065 293.145001063
0.0045 -0.0055 293.084860687
0.0045 -0.0045 293.57451177
0.0045 -0.0035 294.294694179
0.0045 -0.0025 295.283810817
0.0045 -0.0015 302.678941838
0.0045 -0.0005 310.179972789
0.0045 0.0005 320.186138814
0.0045 0.0015 332.959609302
0.0045 0.0025 345.733079789
0.0045 0.0035 355.312078999
0.0045 0.0045 360.927196039
0.0045 0.0055 366.54231308
0.0045 0.0065 373.00123965
0.0045 0.0075 380.333397762
0.0045 0.0085 387.665555873
0.0045 0.0095 392.552010051
0.0045 0.0105 397.922786451
0.0045 0.0115 403.293562851
0.0045 0.0125 405.556822165
0.0045 0.0135 407.809553352
0.0045 0.0145 410.021457336
0.0045 0.0155 410.645080033
0.0045 0.0165 411.078434863
0.0045 0.0175 411.597531509
0.0045 0.0185 411.920697063
0.0045 0.0195 412.099484388
0.0045 0.0205 412.589264729
0.0045 0.0215 413.871041593
0.0045 0.0225 415.123011356
0.0045 0.0235 416.992538882
0.0045 0.0245 420.527010684
0.0045 0.0255 424.061482485
0.0045 0.0265 428.144727128
0.0045 0.0275 433.620734705
0.0045 0.0285 439.096742283
0.0045 0.0295 444.386935726
0.0045 0.0305 446.717768826
0.0045 0.0315 449.05423014
0.0055 -0.0315 364.667339216
0.0055 -0.0305 362.804401464
0.0055 -0.0295 360.721705555
0.0055 -0.0285 356.601444346
0.0055 -0.0275 352.548792214
0.0055 -0.0265 348.780015928
0.0055 -0.0255 345.167232818
0.0055 -0.0245 341.430739262
0.0055 -0.0235 338.795611118
0.0055 -0.0225 336.417895108
0.0055 -0.0215 334.06631023
0.0055 -0.0205 332.843106806
0.0055 -0.0195 331.349247955
0.0055 -0.0185 329.525060957
0.0055 -0.0175 324.139339129
0.0055 -0.0165 315.597733661
0.0055 -0.0155 306.937961835
0.0055 -0.0145 300.977010358
0.0055 -0.0135 296.161437288
0.0055 -0.0125 294.152208808
0.0055 -0.0115 293.564436897
0.0055 -0.0105 293.241794983
0.0055 -0.0095 293.19809238
0.0055 -0.0085 293.229591253
0.0055 -0.0075 293.212696838
0.0055 -0.0065 293.153604202
0.0055 -0.0055 293.156162312
0.0055 -0.0045 293.481782867
0.0055 -0.0035 294.20665184
0.0055 -0.0025 296.253662953
0.0055 -0.0015 301.918403819
0.0055 -0.0005 309.454895305
0.0055 0.0005 320.098783183
0.0055 0.0015 332.648931067
0.0055 0.0025 345.411134475
0.0055 0.0035 349.893906509
0.0055 0.0045 355.511473601
0.0055 0.0055 361.246252915
0.0055 0.0065 367.980953053
0.0055 0.0075 375.313275357
0.0055 0.0085 383.184371413
0.0055 0.0095 391.914026475
0.0055 0.0105 397.281333089
0.0055 0.0115 403.27104406
0.0055 0.0125 408.9462524
0.0055 0.0135 411.200497541
0.0055 0.0145 413.472217333
0.0055 0.0155 415.009756758
0.0055 0.0165 415.455327515
0.0055 0.0175 415.365217473
0.0055 0.0185 415.085380797
0.0055 0.0195 415.266864368
0.0055 0.0205 414.886362723
0.0055 0.0215 415.178856896
0.0055 0.0225 416.427567917
0.0055 0.0235 417.432320696
0.0055 0.0245 420.188838777
0.0055 0.0255 423.776039306
0.0055 0.0265 427.802466645
0.0055 0.0275 432.785560017
0.0055 0.0285 438.261020023
0.0055 0.0295 443.716602434
0.0055 0.0305 446.027566907
0.0055 0.0315 448.283087268
0.0065 -0.0315 360.658639153
0.0065 -0.0305 358.625838595
0.0065 -0.0295 356.337719666
0.0065 -0.0285 352.214669982
0.0065 -0.0275 348.180465881
0.0065 -0.0265 344.656914251
0.0065 -0.0255 341.133362621
0.0065 -0.0245 337.759792325
0.0065 -0.0235 335.571080758
0.0065 -0.0225 333.373800853
0.0065 -0.0215 331.666236803
0.0065 -0.0205 330.467974368
0.0065 -0.0195 329.07787972
0.0065 -0.0185 326.952914267
0.0065 -0.0175 324.827948814
0.0065 -0.0165 316.531508793
0.0065 -0.0155 307.8614578
0.0065 -0.0145 300.267515689
0.0065 -0.0135 297.221806656
0.0065 -0.0125 294.603212403
0.0065 -0.0115 293.560071115
0.0065 -0.0105 293.379455267
0.0065 -0.0095 293.213529698
0.0065 -0.0085 293.217604389
0.0065 -0.0075 293.199552821
0.0065 -0.0065 293.165056698
0.0065 -0.0055 293.29785969
0.0065 -0.0045 293.464288344
0.0065 -0.0035 294.313694454
0.0065 -0.0025 297.44064085
0.0065 -0.0015 300.567587246
0.0065 -0.0005 309.40813617
0.0065 0.0005 320.885331543
0.0065 0.0015 332.648760571
0.0065 0.0025 340.679890498
0.0065 0.0035 345.046748895
0.0065 0.0045 349.955670435
0.0065 0.0055 356.287608268
0.0065 0.0065 362.899687256
0.0065 0.0075 369.905449706
0.0065 0.0085 379.328496452
0.0065 0.0095 389.220693481
0.0065 0.0105 396.257855044
0.0065 0.0115 403.498313151
0.0065 0.0125 410.925320477
0.0065 0.0135 414.678774186
0.0065 0.0145 416.977430341
0.0065 0.0155 419.276086495
0.0065 0.0165 420.030680823
0.0065 0.0175 419.361636193
0.0065 0.0185 418.692591564
0.0065 0.0195 418.556515649
0.0065 0.0205 417.727018568
0.0065 0.0215 416.897521487
0.0065 0.0225 417.836782433
0.0065 0.0235 418.713706655
0.0065 0.0245 419.916427867
0.0065 0.0255 423.654254707
0.0065 0.0265 427.801872748
0.0065 0.0275 431.95038533
0.0065 0.0285 437.407401374
0.0065 0.0295 442.862983785
0.0065 0.0305 445.420501778
0.0065 0.0315 447.731437256
0.0075 -0.0315 356.903223679
0.0075 -0.0305 354.702088443
0.0075 -0.0295 352.147351698
0.0075 -0.0285 348.482945489
0.0075 -0.0275 344.81354311
0.0075 -0.0265 341.067195075
0.0075 -0.0255 337.320847041
0.0075 -0.0245 335.075765713
0.0075 -0.0235 333.074004004
0.0075 -0.0225 331.102307265
0.0075 -0.0215 330.021250569
0.0075 -0.0205 328.82929896
0.0075 -0.0195 328.578282643
0.0075 -0.0185 326.57527045
0.0075 -0.0175 324.20911743
0.0075 -0.0165 316.693497478
0.0075 -0.0155 308.033766195
0.0075 -0.0145 300.725538922
0.0075 -0.0135 297.554005716
0.0075 -0.0125 294.933549562
0.0075 -0.0115 293.607447865
0.0075 -0.0105 293.426992489
0.0075 -0.0095 293.261865038
0.0075 -0.0085 293.219278507
0.0075 -0.0075 293.201050956
0.0075 -0.0065 293.199696892
0.0075 -0.0055 293.339230174
0.0075 -0.0045 293.507519004
0.0075 -0.0035 294.583075874
0.0075 -0.0025 297.732101882
0.0075 -0.0015 300.881127891
0.0075 -0.0005 309.129692494
0.0075 0.0005 320.634511563
0.0075 0.0015 331.80165776
0.0075 0.0025 337.95404011
0.0075 0.0035 342.277891689
0.0075 0.0045 345.69301669
0.0075 0.0055 351.297022719
0.0075 0.0065 357.909359291
0.0075 0.0075 364.947322887
0.0075 0.0085 374.65676053
0.0075 0.0095 384.543254319
0.0075 0.0105 395.470185753
0.0075 0.0115 402.887716056
0.0075 0.0125 410.305246359
0.0075 0.0135 417.756728367
0.0075 0.0145 420.047790063
0.0075 0.0155 422.338851759
0.0075 0.0165 423.818850106
0.0075 0.0175 423.146397369
0.0075 0.0185 422.473944632
0.0075 0.0195 421.344443324
0.0075 0.0205 420.513942729
0.0075 0.0215 419.683442135
0.0075 0.0225 419.305240449
0.0075 0.0235 420.137823827
0.0075 0.0245 420.970407205
0.0075 0.0255 423.629410063
0.0075 0.0265 427.759089196
0.0075 0.0275 431.950713736
0.0075 0.0285 437.039087652
0.0075 0.0295 442.127461568
0.0075 0.0305 444.934466008
0.0075 0.0315 447.313264537
0.0085 -0.0315 353.186878847
0.0085 -0.0305 351.347292902
0.0085 -0.0295 349.039131408
0.0085 -0.0285 345.212297752
0.0085 -0.0275 341.475875388
0.0085 -0.0265 338.161836501
0.0085 -0.0255 335.496659595
0.0085 -0.0245 333.281131511
0.0085 -0.0235 331.379571341
0.0085 -0.0225 329.794780866
0.0085 -0.0215 328.80188966
0.0085 -0.0205 327.894668626
0.0085 -0.0195 328.210182816
0.0085 -0.0185 327.636035178
0.0085 -0.0175 322.765685757
0.0085 -0.0165 316.065557126
0.0085 -0.0155 307.616664146
0.0085 -0.0145 302.087639501
0.0085 -0.0135 297.297931882
0.0085 -0.0125 295.214317773
0.0085 -0.0115 294.002673894
0.0085 -0.0105 293.401925821
0.0085 -0.0095 293.303572047
0.0085 -0.0085 293.237568813
0.0085 -0.0075 293.215319845
0.0085 -0.0065 293.236425783
0.0085 -0.0055 293.289565485
0.0085 -0.0045 293.73844961
0.0085 -0.0035 294.918447974
0.0085 -0.0025 297.097964328
0.0085 -0.0015 302.063721294
0.0085 -0.0005 308.748413724
0.0085 0.0005 319.142960136
0.0085 0.0015 328.87688794
0.0085 0.0025 337.898346021
0.0085 0.0035 342.226655345
0.0085 0.0045 343.945639485
0.0085 0.0055 346.260971188
0.0085 0.0065 352.883026928
0.0085 0.0075 360.51534446
0.0085 0.0085 368.810689165
0.0085 0.0095 378.940732017
0.0085 0.0105 390.885126722
0.0085 0.0115 401.12449297
0.0085 0.0125 408.731248956
0.0085 0.0135 417.014043745
0.0085 0.0145 422.562781267
0.0085 0.0155 424.642129888
0.0085 0.0165 426.264642242
0.0085 0.0175 426.684506668
0.0085 0.0185 425.707558582
0.0085 0.0195 424.303523897
0.0085 0.0205 423.244167539
0.0085 0.0215 422.208747322
0.0085 0.0225 421.023285249
0.0085 0.0235 421.841964654
0.0085 0.0245 422.334216154
0.0085 0.0255 424.621057845
0.0085 0.0265 427.809838784
0.0085 0.0275 431.980039752
0.0085 0.0285 437.061821887
0.0085 0.0295 442.136990675
0.0085 0.0305 444.752566335
0.0085 0.0315 446.914508908
0.0095 -0.0315 350.284099453
0.0095 -0.0305 348.215375037
0.0095 -0.0295 345.955111754
0.0095 -0.0285 342.128278098
0.0095 -0.0275 339.030632173
0.0095 -0.0265 336.344719241
0.0095 -0.0255 333.682014469
0.0095 -0.0245 331.454018249
0.0095 -0.0235 329.825294376
0.0095 -0.0225 328.669729115
0.0095 -0.0215 327.646594837
0.0095 -0.0205 327.441574419
0.0095 -0.0195 327.760361478
0.0095 -0.0185 327.901995351
0.0095 -0.0175 321.991405461
0.0095 -0.0165 315.14944684
0.0095 -0.0155 308.572318106
0.0095 -0.0145 303.002181514
0.0095 -0.0135 297.432044923
0.0095 -0.0125 295.630689036
0.0095 -0.0115 294.417004839
0.0095 -0.0105 293.401016257
0.0095 -0.0095 293.335265339
0.0095 -0.0085 293.269514422
0.0095 -0.0075 293.243364274
0.0095 -0.0065 293.264930075
0.0095 -0.0055 293.286495875
0.0095 -0.0045 294.129793651
0.0095 -0.0035 295.321428604
0.0095 -0.0025 296.689723372
0.0095 -0.0015 303.103684983
0.0095 -0.0005 309.836693791
0.0095 0.0005 317.216096939
0.0095 0.0015 326.194192758
0.0095 0.0025 335.172288577
0.0095 0.0035 340.833909198
0.0095 0.0045 342.210986379
0.0095 0.0055 343.588063559
0.0095 0.0065 348.427437855
0.0095 0.0075 356.059249368
0.0095 0.0085 363.691060881
0.0095 0.0095 374.254099526
0.0095 0.0105 386.188266454
0.0095 0.0115 398.122433382
0.0095 0.0125 407.415618859
0.0095 0.0135 415.691607751
0.0095 0.0145 423.967596643
0.0095 0.0155 426.683012782
0.0095 0.0165 428.29474406
0.0095 0.0175 429.858222977
0.0095 0.0185 428.645633729
0.0095 0.0195 427.221751262
0.0095 0.0205 425.754823359
0.0095 0.0215 424.513905229
0.0095 0.0225 423.278663834
0.0095 0.0235 423.164868028
0.0095 0.0245 423.657119528
0.0095 0.0255 425.958701302
0.0095 0.0265 429.11550574
0.0095 0.0275 432.455677662
0.0095 0.0285 437.070443271
0.0095 0.0295 442.145612059
0.0095 0.0305 444.726041522
0.0095 0.0315 446.97331092
0.0105 -0.0315 347.658643134
0.0105 -0.0305 345.494620833
0.0105 -0.0295 343.383500143
0.0105 -0.0285 340.296001466
0.0105 -0.0275 337.20511747
0.0105 -0.0265 334.500691683
0.0105 -0.0255 331.852041424
0.0105 -0.0245 330.228192226
0.0105 -0.0235 328.975939844
0.0105 -0.0225 327.747230588
0.0105 -0.0215 327.025305086
0.0105 -0.0205 326.98064733
0.0105 -0.0195 327.134285339
0.0105 -0.0185 326.671067484
0.0105 -0.0175 323.0407292
0.0105 -0.0165 315.983737475
0.0105 -0.0155 308.246680277
0.0105 -0.0145 302.228320896
0.0105 -0.0135 298.202630037
0.0105 -0.0125 295.572465142
0.0105 -0.0115 294.358780945
0.0105 -0.0105 293.698314502
0.0105 -0.0095 293.334186552
0.0105 -0.0085 293.27599091
0.0105 -0.0075 293.252238759
0.0105 -0.0065 293.262116406
0.0105 -0.0055 293.446441585
0.0105 -0.0045 293.873549256
0.0105 -0.0035 295.065184209
0.0105 -0.0025 297.53341978
0.0105 -0.0015 301.758047918
0.0105 -0.0005 308.491056727
0.0105 0.0005 317.144567136
0.0105 0.0015 326.094531022
0.0105 0.0025 334.864784668
0.0105 0.0035 338.78300251
0.0105 0.0045 340.709624609
0.0105 0.0055 342.147082296
0.0105 0.0065 343.84297199
0.0105 0.0075 351.071303144
0.0105 0.0085 359.063639412
0.0105 0.0095 367.966639131
0.0105 0.0105 379.900806059
0.0105 0.0115 392.388336588
0.0105 0.0125 405.014579271
0.0105 0.0135 413.290568162
0.0105 0.0145 421.428120409
0.0105 0.0155 428.084015042
0.0105 0.0165 429.69574632
0.0105 0.0175 430.693004098
0.0105 0.0185 430.806962761
0.0105 0.0195 429.383080294
0.0105 0.0205 427.803241194
0.0105 0.0215 426.292619904
0.0105 0.0225 425.175523443
0.0105 0.0235 425.216752103
0.0105 0.0245 425.255924582
0.0105 0.0255 427.130085675
0.0105 0.0265 430.148240046
0.0105 0.0275 433.526209512
0.0105 0.0285 438.005976926
0.0105 0.0295 442.430250443
0.0105 0.0305 444.851628461
0.0105 0.0315 447.1372121
0.0115 -0.0315 345.164874806
0.0115 -0.0305 343.470278724
0.0115 -0.0295 341.538790536
0.0115 -0.0285 338.45969759
0.0115 -0.0275 335.379602767
0.0115 -0.0265 332.969324733
0.0115 -0.0255 330.868293025
0.0115 -0.0245 329.201443105
0.0115 -0.0235 328.02164626
0.0115 -0.0225 326.841849415
0.0115 -0.0215 326.690538496
0.0115 -0.0205 326.66601388
0.0115 -0.0195 326.347251647
0.0115 -0.0185 325.544210363
0.0115 -0.0175 324.090052939
0.0115 -0.0165 316.447982011
0.0115 -0.0155 308.710924813
0.0115 -0.0145 301.932456666
0.0115 -0.0135 299.0612792
0.0115 -0.0125 296.190101733
0.0115 -0.0115 294.597947143
0.0115 -0.0105 294.005676697
0.0115 -0.0095 293.413406252
0.0115 -0.0085 293.299663036
0.0115 -0.0075 293.275910886
0.0115 -0.0065 293.26841275
0.0115 -0.0055 293.659148868
0.0115 -0.0045 294.049884986
0.0115 -0.0035 295.323167762
0.0115 -0.0025 298.377116188
0.0115 -0.0015 301.431064613
0.0115 -0.0005 308.170835003
0.0115 0.0005 317.083907081
0.0115 0.0015 325.996979158
0.0115 0.0025 331.82837683
0.0115 0.0035 335.746594673
0.0115 0.0045 339.20826284
0.0115 0.0055 340.833121503
0.0115 0.0065 342.529011196
0.0115 0.0075 346.08335692
0.0115 0.0085 354.753966824
0.0115 0.0095 363.525820126
0.0115 0.0105 373.661253221
0.0115 0.0115 386.877668458
0.0115 0.0125 400.094083695
0.0115 0.0135 410.853172827
0.0115 0.0145 418.869884826
0.0115 0.0155 426.886596825
0.0115 0.0165 430.871856896
0.0115 0.0175 431.52778522
0.0115 0.0185 432.183713544
0.0115 0.0195 431.460565477
0.0115 0.0205 429.851659029
0.0115 0.0215 428.24275258
0.0115 0.0225 427.282471199
0.0115 0.0235 427.133213708
0.0115 0.0245 426.983956218
0.0115 0.0255 428.764511052
0.0115 0.0265 431.32968576
0.0115 0.0275 434.596741362
0.0115 0.0285 438.880666702
0.0115 0.0295 443.142974336
0.0115 0.0305 445.405870897
0.0115 0.0315 447.38290536
0.0125 -0.0315 343.44049691
0.0125 -0.0305 341.600339928
0.0125 -0.0295 339.69408093
0.0125 -0.0285 336.700970177
0.0125 -0.0275 334.045405201
0.0125 -0.0265 331.924734286
0.0125 -0.0255 329.897763807
0.0125 -0.0245 328.174693984
0.0125 -0.0235 327.192220359
0.0125 -0.0225 326.385693512
0.0125 -0.0215 326.361116361
0.0125 -0.0205 326.401314247
0.0125 -0.0195 326.015284943
0.0125 -0.0185 325.400277089
0.0125 -0.0175 323.915965542
0.0125 -0.0165 316.673286896
0.0125 -0.0155 308.915666709
0.0125 -0.0145 302.180666787
0.0125 -0.0135 298.667971554
0.0125 -0.0125 295.976766975
0.0125 -0.0115 294.596957961
0.0125 -0.0105 293.973599711
0.0125 -0.0095 293.493191661
0.0125 -0.0085 293.307069433
0.0125 -0.0075 293.283624651
0.0125 -0.0065 293.339884338
0.0125 -0.0055 293.616024944
0.0125 -0.0045 294.011346732
0.0125 -0.0035 295.154121502
0.0125 -0.0025 298.02339114
0.0125 -0.0015 301.32055375
0.0125 -0.0005 307.071073797
0.0125 0.0005 316.022584377
0.0125 0.0015 324.767042028
0.0125 0.0025 331.12785293
0.0125 0.0035 334.992982444
0.0125 0.0045 337.883010691
0.0125 0.0055 339.343983908
0.0125 0.0065 341.039267737
0.0125 0.0075 343.049965528
0.0125 0.0085 349.852432391
0.0125 0.0095 358.617170147
0.0125 0.0105 368.002826457
0.0125 0.0115 380.504742885
0.0125 0.0125 393.710842209
0.0125 0.0135 407.0328297
0.0125 0.0145 415.795151491
0.0125 0.0155 423.81524261
0.0125 0.0165 431.478913257
0.0125 0.0175 432.117320226
0.0125 0.0185 432.755727194
0.0125 0.0195 433.046285115
0.0125 0.0205 431.447225514
0.0125 0.0215 429.896623355
0.0125 0.0225 429.011737105
0.0125 0.0235 428.861315961
0.0125 0.0245 428.711987853
0.0125 0.0255 430.57488461
0.0125 0.0265 433.060207589
0.0125 0.0275 435.866449231
0.0125 0.0285 439.613160151
0.0125 0.0295 443.855698229
0.0125 0.0305 446.101310463
0.0125 0.0315 448.088524744
0.0135 -0.0315 341.830990378
0.0135 -0.0305 339.977678547
0.0135 -0.0295 338.197810248
0.0135 -0.0285 335.550459185
0.0135 -0.0275 332.894894209
0.0135 -0.0265 330.756275343
0.0135 -0.0255 328.802799665
0.0135 -0.0245 327.503098794
0.0135 -0.0235 326.74901569
0.0135 -0.0225 325.942488843
0.0135 -0.0215 325.952272125
0.0135 -0.0205 326.046534011
0.0135 -0.0195 326.250257741
0.0135 -0.0185 325.968036945
0.0135 -0.0175 323.355588887
0.0135 -0.0165 316.437384628
0.0135 -0.0155 309.640259936
0.0135 -0.0145 303.156188977
0.0135 -0.0135 298.186561661
0.0135 -0.0125 296.411490489
0.0135 -0.0115 295.031681476
0.0135 -0.0105 293.911602224
0.0135 -0.0095 293.628874579
0.0135 -0.0085 293.388159872
0.0135 -0.0075 293.313167299
0.0135 -0.0065 293.422184462
0.0135 -0.0055 293.534397436
0.0135 -0.0045 294.319423388
0.0135 -0.0035 295.580393405
0.0135 -0.0025 297.398854523
0.0135 -0.0015 302.111210428
0.0135 -0.0005 307.424553813
0.0135 0.0005 314.61180687
0.0135 0.0015 322.763289797
0.0135 0.0025 330.696996284
0.0135 0.0035 335.321075155
0.0135 0.0045 336.639124637
0.0135 0.0055 337.786904933
0.0135 0.0065 339.517521301
0.0135 0.0075 341.842165735
0.0135 0.0085 344.669749568
0.0135 0.0095 353.665345547
0.0135 0.0105 363.402672574
0.0135 0.0115 373.767048121
0.0135 0.0125 387.031714701
0.0135 0.0135 400.390407034
0.0135 0.0145 412.510286425
0.0135 0.0155 420.387005649
0.0135 0.0165 428.106062665
0.0135 0.0175 432.638600649
0.0135 0.0185 433.124029625
0.0135 0.0195 433.415869462
0.0135 0.0205 432.963805272
0.0135 0.0215 431.745846167
0.0135 0.0225 430.741877601
0.0135 0.0235 430.591456458
0.0135 0.0245 430.505153792
0.0135 0.0255 432.20985274
0.0135 0.0265 434.64721289
0.0135 0.0275 437.459843824
0.0135 0.0285 441.206554745
0.0135 0.0295 444.822878977
0.0135 0.0305 446.813853012
0.0135 0.0315 448.802439458
0.0145 -0.0315 340.335209235
0.0145 -0.0305 338.748098925
0.0145 -0.0295 337.023207324
0.0145 -0.0285 334.382175232
0.0145 -0.0275 331.741143141
0.0145 -0.0265 329.81673358
0.0145 -0.0255 328.145238625
0.0145 -0.0245 326.837545671
0.0145 -0.0235 326.161527407
0.0145 -0.0225 325.487169163
0.0145 -0.0215 325.612570433
0.0145 -0.0205 325.765385028
0.0145 -0.0195 325.977188286
0.0145 -0.0185 326.231409853
0.0145 -0.0175 323.103487238
0.0145 -0.0165 316.67573683
0.0145 -0.0155 310.271727642
0.0145 -0.0145 303.898737622
0.0145 -0.0135 298.1594552
0.0145 -0.0125 296.633472632
0.0145 -0.0115 295.207865304
0.0145 -0.0105 294.051871716
0.0145 -0.0095 293.685530644
0.0145 -0.0085 293.446171836
0.0145 -0.0075 293.336297365
0.0145 -0.0065 293.448268572
0.0145 -0.0055 293.574298347
0.0145 -0.0045 294.383898751
0.0145 -0.0035 295.642583295
0.0145 -0.0025 297.306862273
0.0145 -0.0015 301.944780748
0.0145 -0.0005 307.354862474
0.0145 0.0005 313.47982225
0.0145 0.0015 321.304319669
0.0145 0.0025 329.1491006
0.0145 0.0035 334.627811489
0.0145 0.0045 335.79233469
0.0145 0.0055 336.956857891
0.0145 0.0065 338.15536428
0.0145 0.0075 340.472454678
0.0145 0.0085 342.789545076
0.0145 0.0095 348.751914306
0.0145 0.0105 358.472532456
0.0145 0.0115 368.193150606
0.0145 0.0125 380.057027068
0.0145 0.0135 393.403455305
0.0145 0.0145 406.744453678
0.0145 0.0155 416.358984522
0.0145 0.0165 424.307870292
0.0145 0.0175 432.256756061
0.0145 0.0185 433.7369405
0.0145 0.0195 434.275350418
0.0145 0.0205 434.364124593
0.0145 0.0215 433.435855483
0.0145 0.0225 432.472018098
0.0145 0.0235 432.500540445
0.0145 0.0245 432.566240085
0.0145 0.0255 434.161095963
0.0145 0.0265 436.365058406
0.0145 0.0275 439.014003426
0.0145 0.0285 442.499733272
0.0145 0.0295 445.985463118
0.0145 0.0305 447.90565267
0.0145 0.0315 449.62875696
0.0155 -0.0315 339.231186651
0.0155 -0.0305 337.571258688
0.0155 -0.0295 335.848604399
0.0155 -0.0285 333.282751226
0.0155 -0.0275 330.860151459
0.0155 -0.0265 329.071077752
0.0155 -0.0255 327.487677585
0.0155 -0.0245 326.171992547
0.0155 -0.0235 325.621402895
0.0155 -0.0225 325.150393749
0.0155 -0.0215 325.309117887
0.0155 -0.0205 325.484236045
0.0155 -0.0195 325.713802446
0.0155 -0.0185 326.071346124
0.0155 -0.0175 323.424923393
0.0155 -0.0165 317.222998924
0.0155 -0.0155 310.83026816
0.0155 -0.0145 304.131275755
0.0155 -0.0135 298.711092241
0.0155 -0.0125 296.621616595
0.0155 -0.0115 295.160047176
0.0155 -0.0105 294.334401527
0.0155 -0.0095 293.691775635
0.0155 -0.0085 293.496082152
0.0155 -0.0075 293.414490007
0.0155 -0.0065 293.428890835
0.0155 -0.0055 293.738277174
0.0155 -0.0045 294.153269433
0.0155 -0.0035 295.371093167
0.0155 -0.0025 297.729744514
0.0155 -0.0015 300.72209061
0.0155 -0.0005 306.390995369
0.0155 0.0005 313.482758802
0.0155 0.0015 320.974627627
0.0155 0.0025 328.582654101
0.0155 0.0035 333.545916338
0.0155 0.0045 336.111901256
0.0155 0.0055 336.979097194
0.0155 0.0065 337.001202735
0.0155 0.0075 338.707157198
0.0155 0.0085 341.271180409
0.0155 0.0095 344.186499847
0.0155 0.0105 352.892803849
0.0155 0.0115 362.687416419
0.0155 0.0125 372.531533333
0.0155 0.0135 385.858781283
0.0155 0.0145 399.17006715
0.0155 0.0155 410.99638695
0.0155 0.0165 419.028376752
0.0155 0.0175 427.968847565
0.0155 0.0185 432.713585018
0.0155 0.0195 435.547629094
0.0155 0.0205 435.521676823
0.0155 0.0215 434.785580987
0.0155 0.0225 434.367938894
0.0155 0.0235 434.524098216
0.0155 0.0245 434.627326377
0.0155 0.0255 436.149529074
0.0155 0.0265 438.259648218
0.0155 0.0275 440.640066755
0.0155 0.0285 443.753184481
0.0155 0.0295 447.148047258
0.0155 0.0305 449.065281246
0.0155 0.0315 450.754372936
0.0165 -0.0315 338.169079301
0.0165 -0.0305 336.509151339
0.0165 -0.0295 334.866971561
0.0165 -0.0285 332.462862282
0.0165 -0.0275 330.040262514
0.0165 -0.0265 328.247618305
0.0165 -0.0255 326.725655947
0.0165 -0.0245 325.712195901
0.0165 -0.0235 325.28462748
0.0165 -0.0225 324.813618335
0.0165 -0.0215 324.980552962
0.0165 -0.0205 325.24178783
0.0165 -0.0195 325.589619885
0.0165 -0.0185 325.953582284
0.0165 -0.0175 323.64775218
0.0165 -0.0165 317.412360973
0.0165 -0.0155 310.980415984
0.0165 -0.0145 304.222220399
0.0165 -0.0135 299.262729282