% Model:              SIMBench260525.mph
% Version:            COMSOL 6.2.0.339
% Date:               May 27 2026, 17:18
% Dimension:          2
% Nodes:              4096
% Expressions:        1
% Description:        温度
% Length unit:        m
% x                       y                        T (K)
% mirrored_by_python_y_to_minus_y, coord_match_decimals=12
0.0005 -0.0315 293.151299553
0.0005 -0.0305 293.176403669
0.0005 -0.0295 293.201507785
0.0005 -0.0285 293.170123317
0.0005 -0.0275 293.186154967
0.0005 -0.0265 293.202186617
0.0005 -0.0255 293.166757615
0.0005 -0.0245 293.149585985
0.0005 -0.0235 293.299504108
0.0005 -0.0225 293.62978897
0.0005 -0.0215 294.486952713
0.0005 -0.0205 294.576133863
0.0005 -0.0195 294.665315013
0.0005 -0.0185 297.095718075
0.0005 -0.0175 298.336840404
0.0005 -0.0165 300.181544628
0.0005 -0.0155 307.586780316
0.0005 -0.0145 315.369384372
0.0005 -0.0135 321.420344375
0.0005 -0.0125 324.03890237
0.0005 -0.0115 327.212780777
0.0005 -0.0105 329.103207031
0.0005 -0.0095 329.891591666
0.0005 -0.0085 330.798624271
0.0005 -0.0075 331.082006436
0.0005 -0.0065 331.253533644
0.0005 -0.0055 331.428881609
0.0005 -0.0045 331.312204466
0.0005 -0.0035 331.324314553
0.0005 -0.0025 331.336424639
0.0005 -0.0015 331.179936147
0.0005 -0.0005 331.1015524
0.0005 0.0005 331.019690434
0.0005 0.0015 330.926563184
0.0005 0.0025 330.879663938
0.0005 0.0035 330.841878204
0.0005 0.0045 330.870822582
0.0005 0.0055 330.921283017
0.0005 0.0065 331.017256224
0.0005 0.0075 331.210548496
0.0005 0.0085 331.410551958
0.0005 0.0095 331.71626594
0.0005 0.0105 331.846654944
0.0005 0.0115 331.956552582
0.0005 0.0125 332.355314297
0.0005 0.0135 332.5740346
0.0005 0.0145 332.792754903
0.0005 0.0155 333.160487487
0.0005 0.0165 333.465013555
0.0005 0.0175 333.770381218
0.0005 0.0185 334.158723115
0.0005 0.0195 334.576290895
0.0005 0.0205 334.978189923
0.0005 0.0215 335.464912223
0.0005 0.0225 336.082243438
0.0005 0.0235 336.643595804
0.0005 0.0245 337.531316606
0.0005 0.0255 338.608477781
0.0005 0.0265 339.688750689
0.0005 0.0275 341.502995472
0.0005 0.0285 343.436549344
0.0005 0.0295 345.704739591
0.0005 0.0305 347.224412516
0.0005 0.0315 348.742991068
0.0015 -0.0315 293.444861322
0.0015 -0.0305 293.372467568
0.0015 -0.0295 293.360704642
0.0015 -0.0285 293.278462531
0.0015 -0.0275 293.278314162
0.0015 -0.0265 293.24454615
0.0015 -0.0255 293.175128461
0.0015 -0.0245 293.172027154
0.0015 -0.0235 293.338037173
0.0015 -0.0225 294.046233529
0.0015 -0.0215 295.08166251
0.0015 -0.0205 295.909528402
0.0015 -0.0195 297.255695704
0.0015 -0.0185 300.813461732
0.0015 -0.0175 302.836966692
0.0015 -0.0165 308.012278457
0.0015 -0.0155 315.017033826
0.0015 -0.0145 322.731957298
0.0015 -0.0135 324.98775228
0.0015 -0.0125 326.584981859
0.0015 -0.0115 329.656844603
0.0015 -0.0105 329.863286545
0.0015 -0.0095 330.230009278
0.0015 -0.0085 330.933942581
0.0015 -0.0075 330.784668909
0.0015 -0.0065 330.76061576
0.0015 -0.0055 330.780015526
0.0015 -0.0045 330.510101627
0.0015 -0.0035 330.393401396
0.0015 -0.0025 330.286502202
0.0015 -0.0015 330.064410989
0.0015 -0.0005 329.942987252
0.0015 0.0005 329.828459317
0.0015 0.0015 329.695799889
0.0015 0.0025 329.636600055
0.0015 0.0035 329.623527089
0.0015 0.0045 329.61832619
0.0015 0.0055 329.668786625
0.0015 0.0065 329.836853968
0.0015 0.0075 330.01204321
0.0015 0.0085 330.239223437
0.0015 0.0095 330.635981938
0.0015 0.0105 330.943235135
0.0015 0.0115 331.188081669
0.0015 0.0125 331.756493158
0.0015 0.0135 332.162430312
0.0015 0.0145 332.476509874
0.0015 0.0155 332.904613748
0.0015 0.0165 333.25659588
0.0015 0.0175 333.600941211
0.0015 0.0185 333.969885012
0.0015 0.0195 334.376549847
0.0015 0.0205 334.722502103
0.0015 0.0215 335.046554654
0.0015 0.0225 335.642516382
0.0015 0.0235 336.101129597
0.0015 0.0245 336.576549531
0.0015 0.0255 337.654222657
0.0015 0.0265 338.737831591
0.0015 0.0275 340.000320588
0.0015 0.0285 342.184845621
0.0015 0.0295 344.762911568
0.0015 0.0305 346.670908965
0.0015 0.0315 348.116914393
0.0025 -0.0315 293.742723878
0.0025 -0.0305 293.6426833
0.0025 -0.0295 293.527504538
0.0025 -0.0285 293.414166325
0.0025 -0.0275 293.362204176
0.0025 -0.0265 293.266140443
0.0025 -0.0255 293.183499308
0.0025 -0.0245 293.210222831
0.0025 -0.0235 293.628921897
0.0025 -0.0225 294.462678089
0.0025 -0.0215 295.539747629
0.0025 -0.0205 296.940358573
0.0025 -0.0195 300.836952056
0.0025 -0.0185 304.416716034
0.0025 -0.0175 308.343232292
0.0025 -0.0165 315.410671203
0.0025 -0.0155 322.478110115
0.0025 -0.0145 326.681359365
0.0025 -0.0135 328.158302033
0.0025 -0.0125 329.635244702
0.0025 -0.0115 330.214975597
0.0025 -0.0105 330.421417539
0.0025 -0.0095 330.627859482
0.0025 -0.0085 330.514500318
0.0025 -0.0075 330.364822438
0.0025 -0.0065 330.215144558
0.0025 -0.0055 329.950541776
0.0025 -0.0045 329.680540709
0.0025 -0.0035 329.421711201
0.0025 -0.0025 329.202795323
0.0025 -0.0015 328.980682957
0.0025 -0.0005 328.787616145
0.0025 0.0005 328.655042409
0.0025 0.0015 328.522468674
0.0025 0.0025 328.435811749
0.0025 0.0035 328.430218044
0.0025 0.0045 328.424624338
0.0025 0.0055 328.496966477
0.0025 0.0065 328.667504485
0.0025 0.0075 328.838042493
0.0025 0.0085 329.140323067
0.0025 0.0095 329.536699482
0.0025 0.0105 329.933075897
0.0025 0.0115 330.483450844
0.0025 0.0125 331.050115437
0.0025 0.0135 331.647368009
0.0025 0.0145 332.181382257
0.0025 0.0155 332.6092175
0.0025 0.0165 333.21302281
0.0025 0.0175 333.58453477
0.0025 0.0185 333.948979518
0.0025 0.0195 334.313960307
0.0025 0.0205 334.633114318
0.0025 0.0215 334.952268329
0.0025 0.0225 335.260318855
0.0025 0.0235 335.720591716
0.0025 0.0245 336.180864577
0.0025 0.0255 336.831640727
0.0025 0.0265 337.947037435
0.0025 0.0275 339.077370236
0.0025 0.0285 341.146541872
0.0025 0.0295 343.727473162
0.0025 0.0305 345.819231533
0.0025 0.0315 347.490837718
0.0035 -0.0315 293.972293053
0.0035 -0.0305 293.892314051
0.0035 -0.0295 293.777909019
0.0035 -0.0285 293.625549268
0.0035 -0.0275 293.390319519
0.0035 -0.0265 293.287585812
0.0035 -0.0255 293.239342722
0.0035 -0.0245 293.324614711
0.0035 -0.0235 293.693060401
0.0035 -0.0225 295.143264359
0.0035 -0.0215 297.118029057
0.0035 -0.0205 300.270634593
0.0035 -0.0195 306.926834159
0.0035 -0.0185 310.506598137
0.0035 -0.0175 315.063317822
0.0035 -0.0165 320.85362607
0.0035 -0.0155 327.62908958
0.0035 -0.0145 327.787937595
0.0035 -0.0135 328.869033576
0.0035 -0.0125 329.924944692
0.0035 -0.0115 329.594603708
0.0035 -0.0105 329.727825099
0.0035 -0.0095 329.706285694
0.0035 -0.0085 329.340292118
0.0035 -0.0075 329.190614238
0.0035 -0.0065 328.973136296
0.0035 -0.0055 328.701350828
0.0035 -0.0045 328.431349761
0.0035 -0.0035 328.233609992
0.0035 -0.0025 328.047064519
0.0035 -0.0015 327.824952153
0.0035 -0.0005 327.706527793
0.0035 0.0005 327.589027662
0.0035 0.0015 327.458622671
0.0035 0.0025 327.40649492
0.0035 0.0035 327.384353232
0.0035 0.0045 327.385788915
0.0035 0.0055 327.418460177
0.0035 0.0065 327.560383901
0.0035 0.0075 327.744003377
0.0035 0.0085 327.953002577
0.0035 0.0095 328.337231323
0.0035 0.0105 328.822221954
0.0035 0.0115 329.396853168
0.0035 0.0125 329.963517761
0.0035 0.0135 330.883567608
0.0035 0.0145 331.842451566
0.0035 0.0155 332.270286809
0.0035 0.0165 333.348338279
0.0035 0.0175 334.253758266
0.0035 0.0185 334.618203014
0.0035 0.0195 335.017355761
0.0035 0.0205 335.373574956
0.0035 0.0215 335.65959828
0.0035 0.0225 335.704582001
0.0035 0.0235 336.036898255
0.0035 0.0245 336.415818693
0.0035 0.0255 336.583882132
0.0035 0.0265 337.502495232
0.0035 0.0275 338.859612594
0.0035 0.0285 340.372827166
0.0035 0.0295 342.705620058
0.0035 0.0305 344.595383508
0.0035 0.0315 346.546601335
0.0045 -0.0315 294.089991167
0.0045 -0.0305 294.081029903
0.0045 -0.0295 293.941194178
0.0045 -0.0285 293.666075951
0.0045 -0.0275 293.426765839
0.0045 -0.0265 293.315661831
0.0045 -0.0255 293.308549052
0.0045 -0.0245 293.398635619
0.0045 -0.0235 294.15353953
0.0045 -0.0225 296.478843768
0.0045 -0.0215 298.738371691
0.0045 -0.0205 304.529132541
0.0045 -0.0195 311.561573894
0.0045 -0.0185 316.977192213
0.0045 -0.0175 321.815920764
0.0045 -0.0165 326.654649315
0.0045 -0.0155 329.144218945
0.0045 -0.0145 329.30306696
0.0045 -0.0135 329.579765119
0.0045 -0.0125 329.556100928
0.0045 -0.0115 329.225759943
0.0045 -0.0105 329.034232658
0.0045 -0.0095 328.665796622
0.0045 -0.0085 328.294959084
0.0045 -0.0075 327.997433492
0.0045 -0.0065 327.725258091
0.0045 -0.0055 327.45308269
0.0045 -0.0045 327.214015619
0.0045 -0.0035 327.045508783
0.0045 -0.0025 326.877001948
0.0045 -0.0015 326.7254573
0.0045 -0.0005 326.622558909
0.0045 0.0005 326.519660518
0.0045 0.0015 326.441020881
0.0045 0.0025 326.38889313
0.0045 0.0035 326.33848842
0.0045 0.0045 326.36294039
0.0045 0.0055 326.395611652
0.0045 0.0065 326.453263316
0.0045 0.0075 326.66000193
0.0045 0.0085 326.869001131
0.0045 0.0095 327.155017585
0.0045 0.0105 327.730283182
0.0045 0.0115 328.305548779
0.0045 0.0125 329.013825942
0.0045 0.0135 330.119767206
0.0045 0.0145 331.225708471
0.0045 0.0155 332.262731303
0.0045 0.0165 333.483653748
0.0045 0.0175 334.704576192
0.0045 0.0185 335.308256044
0.0045 0.0195 335.708267241
0.0045 0.0205 336.108278437
0.0045 0.0215 336.229415521
0.0045 0.0225 336.274399243
0.0045 0.0235 336.353204793
0.0045 0.0245 336.556437953
0.0045 0.0255 336.724501392
0.0045 0.0265 337.128080906
0.0045 0.0275 338.639378748
0.0045 0.0285 340.150676591
0.0045 0.0295 341.706565351
0.0045 0.0305 343.828876311
0.0045 0.0315 345.971803929
0.0055 -0.0315 294.204564751
0.0055 -0.0305 294.102786495
0.0055 -0.0295 293.943520809
0.0055 -0.0285 293.696338546
0.0055 -0.0275 293.463212158
0.0055 -0.0265 293.349882542
0.0055 -0.0255 293.271913736
0.0055 -0.0245 293.361244327
0.0055 -0.0235 294.285050508
0.0055 -0.0225 296.10548565
0.0055 -0.0215 300.140634558
0.0055 -0.0205 306.587105782
0.0055 -0.0195 313.842399746
0.0055 -0.0185 320.59461372
0.0055 -0.0175 325.342623767
0.0055 -0.0165 329.153474536
0.0055 -0.0155 329.123869213
0.0055 -0.0145 329.294472496
0.0055 -0.0135 329.259253993
0.0055 -0.0125 328.930441594
0.0055 -0.0115 328.600487218
0.0055 -0.0105 328.345589353
0.0055 -0.0095 328.032954622
0.0055 -0.0085 327.662177143
0.0055 -0.0075 327.469631966
0.0055 -0.0065 327.223264142
0.0055 -0.0055 326.951255682
0.0055 -0.0045 326.846686301
0.0055 -0.0035 326.680696453
0.0055 -0.0025 326.519499248
0.0055 -0.0015 326.443044446
0.0055 -0.0005 326.341001716
0.0055 0.0005 326.243558891
0.0055 0.0015 326.170366557
0.0055 0.0025 326.120133005
0.0055 0.0035 326.049774623
0.0055 0.0045 326.006275748
0.0055 0.0055 326.041999555
0.0055 0.0065 326.001583814
0.0055 0.0075 326.075757877
0.0055 0.0085 326.288044691
0.0055 0.0095 326.351833289
0.0055 0.0105 326.751835418
0.0055 0.0115 327.32804858
0.0055 0.0125 327.70807535
0.0055 0.0135 328.672989082
0.0055 0.0145 329.77397065
0.0055 0.0155 330.995369298
0.0055 0.0165 332.209934783
0.0055 0.0175 333.565093985
0.0055 0.0185 335.359951226
0.0055 0.0195 335.765447845
0.0055 0.0205 336.396793763
0.0055 0.0215 337.119391123
0.0055 0.0225 337.162210679
0.0055 0.0235 337.058875434
0.0055 0.0245 337.032398363
0.0055 0.0255 337.223130499
0.0055 0.0265 337.423720884
0.0055 0.0275 338.336788571
0.0055 0.0285 339.852679818
0.0055 0.0295 341.715425386
0.0055 0.0305 343.542740257
0.0055 0.0315 345.397006522
0.0065 -0.0315 294.188711869
0.0065 -0.0305 294.084449292
0.0065 -0.0295 293.935770293
0.0065 -0.0285 293.687714993
0.0065 -0.0275 293.457384193
0.0065 -0.0265 293.372147329
0.0065 -0.0255 293.268790612
0.0065 -0.0245 293.720231113
0.0065 -0.0235 294.725732829
0.0065 -0.0225 296.554286114
0.0065 -0.0215 302.344695748
0.0065 -0.0205 308.337337211
0.0065 -0.0195 315.262166649
0.0065 -0.0185 321.98244933
0.0065 -0.0175 327.918923491
0.0065 -0.0165 328.901777778
0.0065 -0.0155 328.805720452
0.0065 -0.0145 328.885244272
0.0065 -0.0135 328.561633665
0.0065 -0.0125 328.233885543
0.0065 -0.0115 327.927663347
0.0065 -0.0105 327.724690348
0.0065 -0.0095 327.513597947
0.0065 -0.0085 327.226808795
0.0065 -0.0075 327.091924975
0.0065 -0.0065 326.928402653
0.0065 -0.0055 326.751076814
0.0065 -0.0045 326.661886294
0.0065 -0.0035 326.543677008
0.0065 -0.0025 326.440009324
0.0065 -0.0015 326.367292543
0.0065 -0.0005 326.279269907
0.0065 0.0005 326.193829172
0.0065 0.0015 326.111723704
0.0065 0.0025 326.051024587
0.0065 0.0035 325.949362655
0.0065 0.0045 325.847086619
0.0065 0.0055 325.837115674
0.0065 0.0065 325.732321421
0.0065 0.0075 325.627527168
0.0065 0.0085 325.760030993
0.0065 0.0095 325.758775322
0.0065 0.0105 325.797370878
0.0065 0.0115 326.270973761
0.0065 0.0125 326.616203284
0.0065 0.0135 327.103271433
0.0065 0.0145 328.276363011
0.0065 0.0155 329.497761659
0.0065 0.0165 330.716884205
0.0065 0.0175 332.529552288
0.0065 0.0185 334.511107715
0.0065 0.0195 335.718103956
0.0065 0.0205 336.734756539
0.0065 0.0215 337.762414641
0.0065 0.0225 338.078964975
0.0065 0.0235 337.82501937
0.0065 0.0245 337.571073766
0.0065 0.0255 337.741722768
0.0065 0.0265 337.947271192
0.0065 0.0275 338.152819616
0.0065 0.0285 339.859252603
0.0065 0.0295 341.721998171
0.0065 0.0305 343.552405338
0.0065 0.0315 345.381641039
0.0075 -0.0315 294.17708506
0.0075 -0.0305 294.071124908
0.0075 -0.0295 293.918458033
0.0075 -0.0285 293.67502545
0.0075 -0.0275 293.430352043
0.0075 -0.0265 293.345115179
0.0075 -0.0255 293.300842772
0.0075 -0.0245 294.02745566
0.0075 -0.0235 294.986997707
0.0075 -0.0225 297.420218244
0.0075 -0.0215 303.568414978
0.0075 -0.0205 310.116286981
0.0075 -0.0195 317.195481347
0.0075 -0.0185 323.986250684
0.0075 -0.0175 328.658238321
0.0075 -0.0165 328.626461452
0.0075 -0.0155 328.531294841
0.0075 -0.0145 328.376702846
0.0075 -0.0135 328.047994754
0.0075 -0.0125 327.719286663
0.0075 -0.0115 327.54401551
0.0075 -0.0105 327.341456781
0.0075 -0.0095 327.138898052
0.0075 -0.0085 327.058789445
0.0075 -0.0075 326.924155162
0.0075 -0.0065 326.80916356
0.0075 -0.0055 326.766520018
0.0075 -0.0045 326.677346332
0.0075 -0.0035 326.617267947
0.0075 -0.0025 326.565806646
0.0075 -0.0015 326.493422365
0.0075 -0.0005 326.430862646
0.0075 0.0005 326.352395074
0.0075 0.0015 326.271256893
0.0075 0.0025 326.160031003
0.0075 0.0035 326.059650379
0.0075 0.0045 325.959269755
0.0075 0.0055 325.789596603
0.0075 0.0065 325.687820152
0.0075 0.0075 325.5860437
0.0075 0.0085 325.417562879
0.0075 0.0095 325.420867011
0.0075 0.0105 325.415446891
0.0075 0.0115 325.443658359
0.0075 0.0125 325.795335439
0.0075 0.0135 326.085837505
0.0075 0.0145 326.767879894
0.0075 0.0155 327.988988364
0.0075 0.0165 329.078526684
0.0075 0.0175 330.680062386
0.0075 0.0185 332.647494489
0.0075 0.0195 334.87430743
0.0075 0.0205 336.084764455
0.0075 0.0215 337.151028902
0.0075 0.0225 338.431935912
0.0075 0.0235 338.262541545
0.0075 0.0245 338.093147179
0.0075 0.0255 338.195561155
0.0075 0.0265 338.350183894
0.0075 0.0275 338.504806632
0.0075 0.0285 340.155584903
0.0075 0.0295 341.831383594
0.0075 0.0305 343.567460231
0.0075 0.0315 345.398972615
0.0085 -0.0315 294.158854463
0.0085 -0.0305 294.013286784
0.0085 -0.0295 293.85092258
0.0085 -0.0285 293.633033827
0.0085 -0.0275 293.41171859
0.0085 -0.0265 293.396520931
0.0085 -0.0255 293.408692582
0.0085 -0.0245 294.082945245
0.0085 -0.0235 295.199358518
0.0085 -0.0225 298.319641166
0.0085 -0.0215 304.804559859
0.0085 -0.0205 311.753240367
0.0085 -0.0195 319.930590231
0.0085 -0.0185 326.799112207
0.0085 -0.0175 328.163988208
0.0085 -0.0165 328.323295618
0.0085 -0.0155 328.215462371
0.0085 -0.0145 328.034330554
0.0085 -0.0135 327.781326614
0.0085 -0.0125 327.540472431
0.0085 -0.0115 327.447359896
0.0085 -0.0105 327.280076612
0.0085 -0.0095 327.177967193
0.0085 -0.0085 327.155328337
0.0085 -0.0075 327.038574718
0.0085 -0.0065 327.021918359
0.0085 -0.0055 327.050240896
0.0085 -0.0045 326.961280999
0.0085 -0.0035 326.964181392
0.0085 -0.0025 326.965984198
0.0085 -0.0015 326.894430054
0.0085 -0.0005 326.84464578
0.0085 0.0005 326.785277959
0.0085 0.0015 326.693693867
0.0085 0.0025 326.557836023
0.0085 0.0035 326.437872609
0.0085 0.0045 326.294060545
0.0085 0.0055 326.066862473
0.0085 0.0065 325.912250334
0.0085 0.0075 325.723685019
0.0085 0.0085 325.444704477
0.0085 0.0095 325.362139438
0.0085 0.0105 325.222254099
0.0085 0.0115 324.999057197
0.0085 0.0125 325.23548739
0.0085 0.0135 325.339255745
0.0085 0.0145 325.371594819
0.0085 0.0155 326.471073367
0.0085 0.0165 327.352633639
0.0085 0.0175 328.226261748
0.0085 0.0185 330.263281087
0.0085 0.0195 332.680211339
0.0085 0.0205 334.671787268
0.0085 0.0215 336.083908762
0.0085 0.0225 337.928804254
0.0085 0.0235 338.18396587
0.0085 0.0245 338.529452203
0.0085 0.0255 338.718104851
0.0085 0.0265 338.742150689
0.0085 0.0275 338.938308334
0.0085 0.0285 340.571956003
0.0085 0.0295 342.165587596
0.0085 0.0305 343.798238864
0.0085 0.0315 345.439450098
0.0095 -0.0315 294.10590642
0.0095 -0.0305 293.943580087
0.0095 -0.0295 293.783387128
0.0095 -0.0285 293.580592745
0.0095 -0.0275 293.413861519
0.0095 -0.0265 293.467530606
0.0095 -0.0255 293.516542392
0.0095 -0.0245 294.13843483
0.0095 -0.0235 295.664125248
0.0095 -0.0225 298.835179141
0.0095 -0.0215 305.933594507
0.0095 -0.0205 313.390193752
0.0095 -0.0195 321.765924331
0.0095 -0.0185 327.505901926
0.0095 -0.0175 327.722281837
0.0095 -0.0165 327.938661748
0.0095 -0.0155 327.875528401
0.0095 -0.0145 327.696505991
0.0095 -0.0135 327.51748358
0.0095 -0.0125 327.431658111
0.0095 -0.0115 327.339787553
0.0095 -0.0105 327.274992343
0.0095 -0.0095 327.253762649
0.0095 -0.0085 327.232532955
0.0095 -0.0075 327.253349927
0.0095 -0.0065 327.281675581
0.0095 -0.0055 327.310001236
0.0095 -0.0045 327.361163989
0.0095 -0.0035 327.376607626
0.0095 -0.0025 327.392051262
0.0095 -0.0015 327.390364014
0.0095 -0.0005 327.341979406
0.0095 0.0005 327.293594797
0.0095 0.0015 327.187443929
0.0095 0.0025 327.055477736
0.0095 0.0035 326.923511544
0.0095 0.0045 326.695152007
0.0095 0.0055 326.474118307
0.0095 0.0065 326.225063067
0.0095 0.0075 325.942099844
0.0095 0.0085 325.670365457
0.0095 0.0095 325.345695348
0.0095 0.0105 325.13085964
0.0095 0.0115 324.916023932
0.0095 0.0125 324.676501588
0.0095 0.0135 324.72447314
0.0095 0.0145 324.772444692
0.0095 0.0155 324.9289984
0.0095 0.0165 325.811770736
0.0095 0.0175 326.694543073
0.0095 0.0185 327.916205885
0.0095 0.0195 330.332856582
0.0095 0.0205 332.737921768
0.0095 0.0215 334.654477772
0.0095 0.0225 336.410866454
0.0095 0.0235 338.383094573
0.0095 0.0245 339.075981126
0.0095 0.0255 339.261223999
0.0095 0.0265 339.285873784
0.0095 0.0275 339.469647673
0.0095 0.0285 340.906160004
0.0095 0.0295 342.499791597
0.0095 0.0305 344.13239098
0.0095 0.0315 345.724574421
0.0105 -0.0315 294.071263713
0.0105 -0.0305 293.905023541
0.0105 -0.0295 293.740382195
0.0105 -0.0285 293.589855435
0.0105 -0.0275 293.423124209
0.0105 -0.0265 293.465244097
0.0105 -0.0255 293.585426872
0.0105 -0.0245 294.818214821
0.0105 -0.0235 296.695664457
0.0105 -0.0225 298.782595976
0.0105 -0.0215 306.374668936
0.0105 -0.0205 316.922684251
0.0105 -0.0195 325.062942299
0.0105 -0.0185 327.182937733
0.0105 -0.0175 327.718011792
0.0105 -0.0165 327.856668868
0.0105 -0.0155 327.840686534
0.0105 -0.0145 327.661664124
0.0105 -0.0135 327.612138085
0.0105 -0.0125 327.61299145
0.0105 -0.0115 327.521120892
0.0105 -0.0105 327.635663039
0.0105 -0.0095 327.718569529
0.0105 -0.0085 327.697339835
0.0105 -0.0075 327.987162473
0.0105 -0.0065 328.120165
0.0105 -0.0055 328.174886792
0.0105 -0.0045 328.510169264
0.0105 -0.0035 328.594179383
0.0105 -0.0025 328.656629381
0.0105 -0.0015 328.866800598
0.0105 -0.0005 328.834793012
0.0105 0.0005 328.788085006
0.0105 0.0015 328.736833396
0.0105 0.0025 328.604867203
0.0105 0.0035 328.362283672
0.0105 0.0045 328.050683663
0.0105 0.0055 327.829649963
0.0105 0.0065 327.389193762
0.0105 0.0075 326.93731815
0.0105 0.0085 326.665583763
0.0105 0.0095 326.100509051
0.0105 0.0105 325.650901545
0.0105 0.0115 325.436065837
0.0105 0.0125 324.907302866
0.0105 0.0135 324.664839781
0.0105 0.0145 324.684880658
0.0105 0.0155 324.395875827
0.0105 0.0165 324.776280155
0.0105 0.0175 325.527738939
0.0105 0.0185 325.988528183
0.0105 0.0195 327.644275099
0.0105 0.0205 329.975898641
0.0105 0.0215 332.258643347
0.0105 0.0225 334.022560594
0.0105 0.0235 336.079983463
0.0105 0.0245 338.171881962
0.0105 0.0255 339.807117564
0.0105 0.0265 339.833934137
0.0105 0.0275 340.073222407
0.0105 0.0285 341.507455455
0.0105 0.0295 342.908144803
0.0105 0.0305 344.378440208
0.0105 0.0315 345.95059564
0.0115 -0.0315 294.034649459
0.0115 -0.0305 293.861736992
0.0115 -0.0295 293.69515486
0.0115 -0.0285 293.560971868
0.0115 -0.0275 293.426788875
0.0115 -0.0265 293.610284032
0.0115 -0.0255 293.877666362
0.0115 -0.0245 295.022997451
0.0115 -0.0235 297.200300897
0.0115 -0.0225 299.377604343
0.0115 -0.0215 308.698723387
0.0115 -0.0205 319.043479078
0.0115 -0.0195 324.527996239
0.0115 -0.0185 326.511008401
0.0115 -0.0175 327.711585817
0.0115 -0.0165 327.717147888
0.0115 -0.0155 327.722709959
0.0115 -0.0145 327.668382159
0.0115 -0.0135 327.713998401
0.0115 -0.0125 327.759614642
0.0115 -0.0115 327.802243959
0.0115 -0.0105 327.980250137
0.0115 -0.0095 328.158256315
0.0115 -0.0085 328.344620908
0.0115 -0.0075 328.654428738
0.0115 -0.0065 328.95865442
0.0115 -0.0055 329.198416515
0.0115 -0.0045 329.533698987
0.0115 -0.0035 329.811751139
0.0115 -0.0025 329.991544533
0.0115 -0.0015 330.201715749
0.0115 -0.0005 330.327606619
0.0115 0.0005 330.283461583
0.0115 0.0015 330.239341709
0.0115 0.0025 330.125463577
0.0115 0.0035 329.789274219
0.0115 0.0045 329.453084861
0.0115 0.0055 329.09442959
0.0115 0.0065 328.553324456
0.0115 0.0075 328.012219321
0.0115 0.0085 327.51110069
0.0115 0.0095 326.883016074
0.0115 0.0105 326.254931458
0.0115 0.0115 325.777301722
0.0115 0.0125 325.232758006
0.0115 0.0135 324.68821429
0.0115 0.0145 324.437082961
0.0115 0.0155 324.14807813
0.0115 0.0165 323.8590733
0.0115 0.0175 324.290737375
0.0115 0.0185 324.804478781
0.0115 0.0195 325.229170307
0.0115 0.0205 327.327875561
0.0115 0.0215 329.526596603
0.0115 0.0225 331.759739045
0.0115 0.0235 334.128324878
0.0115 0.0245 336.496910711
0.0115 0.0255 338.277598455
0.0115 0.0265 339.670440418
0.0115 0.0275 340.676797142
0.0115 0.0285 342.005892
0.0115 0.0295 343.325864872
0.0115 0.0305 344.757114789
0.0115 0.0315 346.209890246
0.0125 -0.0315 293.999540894
0.0125 -0.0305 293.81708722
0.0125 -0.0295 293.649927526
0.0125 -0.0285 293.541286933
0.0125 -0.0275 293.487446364
0.0125 -0.0265 293.791432485
0.0125 -0.0255 294.169905853
0.0125 -0.0245 295.227780081
0.0125 -0.0235 297.645455588
0.0125 -0.0225 300.223449136
0.0125 -0.0215 309.821816239
0.0125 -0.0205 320.118002691
0.0125 -0.0195 324.714994594
0.0125 -0.0185 326.526231625
0.0125 -0.0175 327.756272555
0.0125 -0.0165 327.792039512
0.0125 -0.0155 327.817715778
0.0125 -0.0145 327.972568941
0.0125 -0.0135 328.017221467
0.0125 -0.0125 328.061873993
0.0125 -0.0115 328.485110282
0.0125 -0.0105 328.672348362
0.0125 -0.0095 328.935696744
0.0125 -0.0085 329.549747108
0.0125 -0.0075 329.857573165
0.0125 -0.0065 330.320454407
0.0125 -0.0055 330.960456324
0.0125 -0.0045 331.294430546
0.0125 -0.0035 331.807612302
0.0125 -0.0025 332.246601979
0.0125 -0.0015 332.458143868
0.0125 -0.0005 332.743597589
0.0125 0.0005 332.811294409
0.0125 0.0015 332.770124251
0.0125 0.0025 332.593439857
0.0125 0.0035 332.280332981
0.0125 0.0045 331.95117824
0.0125 0.0055 331.267648974
0.0125 0.0065 330.730369688
0.0125 0.0075 330.190190693
0.0125 0.0085 329.170898756
0.0125 0.0095 328.552406863
0.0125 0.0105 327.856634509
0.0125 0.0115 326.803694895
0.0125 0.0125 326.267177841
0.0125 0.0135 325.613118715
0.0125 0.0145 324.755674675
0.0125 0.0155 324.506559124
0.0125 0.0165 324.11183606
0.0125 0.0175 323.641369364
0.0125 0.0185 324.15511077
0.0125 0.0195 324.304818115
0.0125 0.0205 325.444465068
0.0125 0.0215 327.466866994
0.0125 0.0225 329.284061112
0.0125 0.0235 332.241805231
0.0125 0.0245 334.821939459
0.0125 0.0255 336.563429053
0.0125 0.0265 338.529186577
0.0125 0.0275 340.680366935
0.0125 0.0285 342.364254347
0.0125 0.0295 343.743584941
0.0125 0.0305 345.176857751
0.0125 0.0315 346.504227764
0.0135 -0.0315 293.971712668
0.0135 -0.0305 293.788827216
0.0135 -0.0295 293.647170489
0.0135 -0.0285 293.619549564
0.0135 -0.0275 293.565708996
0.0135 -0.0265 293.860768265
0.0135 -0.0255 294.29171033
0.0135 -0.0245 295.768413002
0.0135 -0.0235 298.516905744
0.0135 -0.0225 301.094899293
0.0135 -0.0215 311.083101249
0.0135 -0.0205 321.229712709
0.0135 -0.0195 324.963348332
0.0135 -0.0185 326.819416605
0.0135 -0.0175 327.923426285
0.0135 -0.0165 328.002899415
0.0135 -0.0155 328.099092536
0.0135 -0.0145 328.297973825
0.0135 -0.0135 328.412885771
0.0135 -0.0125 328.695227792
0.0135 -0.0115 329.170716944
0.0135 -0.0105 329.506294098
0.0135 -0.0095 330.080910598
0.0135 -0.0085 330.800675097
0.0135 -0.0075 331.259142145
0.0135 -0.0065 332.044859266
0.0135 -0.0055 332.895932216
0.0135 -0.0045 333.354724142
0.0135 -0.0035 334.09074695
0.0135 -0.0025 334.826769757
0.0135 -0.0015 335.088146122
0.0135 -0.0005 335.423866437
0.0135 0.0005 335.723870433
0.0135 0.0015 335.620608873
0.0135 0.0025 335.396333361
0.0135 0.0035 335.148354556
0.0135 0.0045 334.62693994
0.0135 0.0055 333.895465031
0.0135 0.0065 333.232657855
0.0135 0.0075 332.380787543
0.0135 0.0085 331.32847776
0.0135 0.0095 330.470398589
0.0135 0.0105 329.450679345
0.0135 0.0115 328.296881271
0.0135 0.0125 327.470539312
0.0135 0.0135 326.516864095
0.0135 0.0145 325.484160493
0.0135 0.0155 324.914119827
0.0135 0.0165 324.330563227
0.0135 0.0175 323.687260522
0.0135 0.0185 323.351149421
0.0135 0.0195 323.470505475
0.0135 0.0205 323.59286385
0.0135 0.0215 324.890706992
0.0135 0.0225 326.624608627
0.0135 0.0235 329.582352746
0.0135 0.0245 332.395856011
0.0135 0.0255 336.043995538
0.0135 0.0265 338.362543772
0.0135 0.0275 340.501495469
0.0135 0.0285 342.185382881
0.0135 0.0295 344.042135887
0.0135 0.0305 345.384719824
0.0135 0.0315 346.698009493
0.0145 -0.0315 293.954279013
0.0145 -0.0305 293.795624072
0.0145 -0.0295 293.656460612
0.0145 -0.0285 293.644157473
0.0145 -0.0275 293.631854334
0.0145 -0.0265 294.034322671
0.0145 -0.0255 294.570315556
0.0145 -0.0245 296.041205787
0.0145 -0.0235 298.984216355
0.0145 -0.0225 302.123735495
0.0145 -0.0215 311.872855292
0.0145 -0.0205 321.653826166
0.0145 -0.0195 325.420211264
0.0145 -0.0185 327.139949138
0.0145 -0.0175 328.097429768
0.0145 -0.0165 328.238134934
0.0145 -0.0155 328.410139029
0.0145 -0.0145 328.613018453
0.0145 -0.0135 328.900563184
0.0145 -0.0125 329.411681644
0.0145 -0.0115 329.922800103
0.0145 -0.0105 330.64005846
0.0145 -0.0095 331.437881766
0.0145 -0.0085 332.157278301
0.0145 -0.0075 333.241493625
0.0145 -0.0065 334.093823759
0.0145 -0.0055 334.946153892
0.0145 -0.0045 336.077751824
0.0145 -0.0035 336.811809072
0.0145 -0.0025 337.545866321
0.0145 -0.0015 338.296189253
0.0145 -0.0005 338.631530873
0.0145 0.0005 338.966872493
0.0145 0.0015 339.013703219
0.0145 0.0025 338.793508351
0.0145 0.0035 338.543860499
0.0145 0.0045 337.866002569
0.0145 0.0055 337.14552886
0.0145 0.0065 336.288232453
0.0145 0.0075 335.15585004
0.0145 0.0085 334.117195004
0.0145 0.0095 332.817144456
0.0145 0.0105 331.556525009
0.0145 0.0115 330.406057569
0.0145 0.0125 328.937320793
0.0145 0.0135 327.839828146
0.0145 0.0145 326.768976956
0.0145 0.0155 325.510690259
0.0145 0.0165 324.74618155
0.0145 0.0175 324.181228174
0.0145 0.0185 323.45843123
0.0145 0.0195 323.30007767
0.0145 0.0205 323.426482126
0.0145 0.0215 323.562346574
0.0145 0.0225 323.952684162
0.0145 0.0235 326.511653972
0.0145 0.0245 329.070623781
0.0145 0.0255 332.72069442
0.0145 0.0265 336.913549775
0.0145 0.0275 340.38190648
0.0145 0.0285 342.391031246
0.0145 0.0295 344.400156013
0.0145 0.0305 345.718864138
0.0145 0.0315 346.933722542
0.0155 -0.0315 293.949441555
0.0155 -0.0305 293.804416343
0.0155 -0.0295 293.665750735
0.0155 -0.0285 293.671517636
0.0155 -0.0275 293.707293017
0.0155 -0.0265 294.204579298
0.0155 -0.0255 294.848920782
0.0155 -0.0245 296.313998572
0.0155 -0.0235 299.549432794
0.0155 -0.0225 303.050815005
0.0155 -0.0215 312.479531316
0.0155 -0.0205 322.077939624
0.0155 -0.0195 325.945822491
0.0155 -0.0185 327.481052482
0.0155 -0.0175 328.368020743
0.0155 -0.0165 328.545893238
0.0155 -0.0155 328.713777106
0.0155 -0.0145 329.105460169
0.0155 -0.0135 329.667482276
0.0155 -0.0125 330.415665904
0.0155 -0.0115 330.926784364
0.0155 -0.0105 332.010050128
0.0155 -0.0095 333.1390584
0.0155 -0.0085 333.896029233
0.0155 -0.0075 335.41638548
0.0155 -0.0065 336.668819472
0.0155 -0.0055 337.687119579
0.0155 -0.0045 339.182761303
0.0155 -0.0035 340.242910388
0.0155 -0.0025 341.108189742
0.0155 -0.0015 342.167285578
0.0155 -0.0005 342.704795699
0.0155 0.0005 343.012798613
0.0155 0.0015 343.297455417
0.0155 0.0025 343.149051159
0.0155 0.0035 342.664850333
0.0155 0.0045 342.05191303
0.0155 0.0055 341.333663547
0.0155 0.0065 340.092579608
0.0155 0.0075 338.753189155
0.0155 0.0085 337.714534119
0.0155 0.0095 335.969838363
0.0155 0.0105 334.321468994
0.0155 0.0115 333.096857248
0.0155 0.0125 331.258661456
0.0155 0.0135 329.792981865
0.0155 0.0145 328.570999842
0.0155 0.0155 326.99118906
0.0155 0.0165 325.766796579
0.0155 0.0175 324.680757179
0.0155 0.0185 323.918181903
0.0155 0.0195 323.155606626
0.0155 0.0205 323.244339396
0.0155 0.0215 323.224494196
0.0155 0.0225 323.271350352
0.0155 0.0235 324.117868148
0.0155 0.0245 325.745391551
0.0155 0.0255 329.397393302
0.0155 0.0265 333.310419375
0.0155 0.0275 337.366686844
0.0155 0.0285 341.952901813
0.0155 0.0295 344.758176139
0.0155 0.0305 346.053915533
0.0155 0.0315 346.967507815
0.0165 -0.0315 293.936756891
0.0165 -0.0305 293.791731679
0.0165 -0.0295 293.699457578
0.0165 -0.0285 293.757476416
0.0165 -0.0275 293.793251798
0.0165 -0.0265 294.291208657
0.0165 -0.0255 294.977681666
0.0165 -0.0245 296.893594186
0.0165 -0.0235 300.464316243
0.0165 -0.0225 303.977894515
0.0165 -0.0215 313.406610826
0.0165 -0.0205 322.631857067
0.0165 -0.0195 326.159488226
0.0165 -0.0185 327.656265363
0.0165 -0.0175 328.602031723
0.0165 -0.0165 328.807580469
0.0165 -0.0155 329.275087513
0.0165 -0.0145 329.826524398
0.0165 -0.0135 330.427298188