% Model:              SIMBench260525.mph
% Version:            COMSOL 6.2.0.339
% Date:               May 27 2026, 17:40
% Dimension:          2
% Nodes:              4096
% Expressions:        1
% Description:        温度
% Length unit:        m
% x                       y                        T (K)
5.0E-4                    -0.0315                  371.6881288714308
5.0E-4                    -0.0305                  369.9058167733808
5.0E-4                    -0.0295                  368.12039449084165
5.0E-4                    -0.0285                  364.7010079135604
5.0E-4                    -0.0275                  361.3975650294599
5.0E-4                    -0.0265                  358.153483115097
5.0E-4                    -0.0255                  355.4723519969101
5.0E-4                    -0.0245                  353.01902719298334
5.0E-4                    -0.0235                  351.0765924880103
5.0E-4                    -0.0225                  349.5927568475379
5.0E-4                    -0.0215                  348.0487180754674
5.0E-4                    -0.0205                  347.11005839547073
5.0E-4                    -0.0195                  345.9849706685609
5.0E-4                    -0.0185                  344.859882941651
5.0E-4                    -0.0175                  344.18701039304074
5.0E-4                    -0.0165                  343.19755241699056
5.0E-4                    -0.0155                  342.20822139118906
5.0E-4                    -0.0145                  341.1016567010248
5.0E-4                    -0.0135                  339.7884955039979
5.0E-4                    -0.0125                  338.30049798200423
5.0E-4                    -0.0115                  334.9167010436356
5.0E-4                    -0.0105                  330.72997742355017
5.0E-4                    -0.0095                  326.5445156758721
5.0E-4                    -0.0085                  318.8053340594936
5.0E-4                    -0.0075                  310.19130218349113
5.0E-4                    -0.0065                  303.24883808726156
5.0E-4                    -0.0055                  301.61849854167053
5.0E-4                    -0.0045                  299.98815899607933
5.0E-4                    -0.0035                  296.48428926931956
5.0E-4                    -0.0025                  294.9387666284889
5.0E-4                    -0.0015                  293.48394473580896
5.0E-4                    -5.0E-4                  293.1032787611362
5.0E-4                    5.0E-4                   293.1013245007208
5.0E-4                    0.0015                   293.39117486743106
5.0E-4                    0.0025                   294.55213423186996
5.0E-4                    0.0035                   295.78809555968587
5.0E-4                    0.0045                   298.63208107436316
5.0E-4                    0.0055                   299.85359219259715
5.0E-4                    0.0065                   301.075103310831
5.0E-4                    0.0075                   307.55910809365776
5.0E-4                    0.0085                   315.3678097601321
5.0E-4                    0.0095                   322.2636968045345
5.0E-4                    0.0105                   326.3900724988323
5.0E-4                    0.0115                   331.07703912516365
5.0E-4                    0.0125                   334.86297158824357
5.0E-4                    0.0135                   336.27667942533935
5.0E-4                    0.0145                   337.4366112562055
5.0E-4                    0.0155                   338.6372290346745
5.0E-4                    0.0165                   339.5649752048422
5.0E-4                    0.0175                   340.49272137500986
5.0E-4                    0.0185                   341.280843002478
5.0E-4                    0.0195                   342.2517233816786
5.0E-4                    0.0205                   343.2162794784257
5.0E-4                    0.0215                   344.06525114447356
5.0E-4                    0.0225                   345.3002301703258
5.0E-4                    0.0235                   346.4662647255678
5.0E-4                    0.0245                   348.11744400357156
5.0E-4                    0.0255                   350.1659616727385
5.0E-4                    0.0265                   352.2702148953878
5.0E-4                    0.0275                   355.13845203435386
5.0E-4                    0.0285                   358.1393525234889
5.0E-4                    0.0295                   361.32887562213375
5.0E-4                    0.0305                   363.044362618828
5.0E-4                    0.0315                   364.7598496155223
0.0015                    -0.0315                  371.0595004676173
0.0015                    -0.0305                  369.6419630442533
0.0015                    -0.0295                  367.0998812470502
0.0015                    -0.0285                  363.4207486192736
0.0015                    -0.0275                  360.00034210650125
0.0015                    -0.0265                  356.92880241089233
0.0015                    -0.0255                  353.90826200094125
0.0015                    -0.0245                  351.52756809801656
0.0015                    -0.0235                  350.2909427906394
0.0015                    -0.0225                  348.9889961063018
0.0015                    -0.0215                  347.67168578778825
0.0015                    -0.0205                  347.12279849149877
0.0015                    -0.0195                  346.3405974843761
0.0015                    -0.0185                  345.51005581223205
0.0015                    -0.0175                  345.0906383974748
0.0015                    -0.0165                  344.3219798385452
0.0015                    -0.0155                  343.34617823253376
0.0015                    -0.0145                  342.3788461219714
0.0015                    -0.0135                  341.13214790718916
0.0015                    -0.0125                  339.1236251726482
0.0015                    -0.0115                  336.94182167571523
0.0015                    -0.0105                  332.7551349961703
0.0015                    -0.0095                  328.5715352733196
0.0015                    -0.0085                  323.4681406068195
0.0015                    -0.0075                  315.43285259091414
0.0015                    -0.0065                  309.5560430145839
0.0015                    -0.0055                  305.4342252502953
0.0015                    -0.0045                  302.45809360683967
0.0015                    -0.0035                  297.59560339483176
0.0015                    -0.0025                  294.922616070016
0.0015                    -0.0015                  293.8855098199128
0.0015                    -5.0E-4                  293.04892961790773
0.0015                    5.0E-4                   293.044325070872
0.0015                    0.0015                   293.68344352096534
0.0015                    0.0025                   294.49545133274285
0.0015                    0.0035                   296.6891180198499
0.0015                    0.0045                   300.68807041022245
0.0015                    0.0055                   303.0274078767748
0.0015                    0.0065                   306.8665554756068
0.0015                    0.0075                   312.4690503543565
0.0015                    0.0085                   319.84454600595876
0.0015                    0.0095                   324.00832008788285
0.0015                    0.0105                   327.2956506284194
0.0015                    0.0115                   331.9559946910597
0.0015                    0.0125                   334.4125613790053
0.0015                    0.0135                   336.59314819997644
0.0015                    0.0145                   337.76878334058466
0.0015                    0.0155                   338.9988826305436
0.0015                    0.0165                   340.10212727110417
0.0015                    0.0175                   340.92250398893
0.0015                    0.0185                   341.60275500327623
0.0015                    0.0195                   342.4664921535083
0.0015                    0.0205                   343.1751797275874
0.0015                    0.0215                   343.7406935105191
0.0015                    0.0225                   344.8887948456309
0.0015                    0.0235                   345.85617947830076
0.0015                    0.0245                   346.9361506839926
0.0015                    0.0255                   349.001726969441
0.0015                    0.0265                   351.17536800874586
0.0015                    0.0275                   353.612826557408
0.0015                    0.0285                   356.6864301930238
0.0015                    0.0295                   360.1757894972461
0.0015                    0.0305                   362.6672304563662
0.0015                    0.0315                   364.12107743290085
0.0025                    -0.0315                  370.43087206380375
0.0025                    -0.0305                  368.6708532628944
0.0025                    -0.0295                  366.001672341087
0.0025                    -0.0285                  362.31383191060183
0.0025                    -0.0275                  358.7659288949504
0.0025                    -0.0265                  355.7270425952141
0.0025                    -0.0255                  352.6881562954779
0.0025                    -0.0245                  351.02380504757286
0.0025                    -0.0235                  349.77471295772295
0.0025                    -0.0225                  348.5256208678731
0.0025                    -0.0215                  348.07193460558415
0.0025                    -0.0205                  347.52032504296534
0.0025                    -0.0195                  346.9989960933837
0.0025                    -0.0185                  346.755918836567
0.0025                    -0.0175                  346.3271851625026
0.0025                    -0.0165                  345.80540559352335
0.0025                    -0.0155                  344.8396002986856
0.0025                    -0.0145                  343.8737950038478
0.0025                    -0.0135                  342.12852475447795
0.0025                    -0.0125                  339.96104512289753
0.0025                    -0.0115                  337.79356549131717
0.0025                    -0.0105                  334.2348505924038
0.0025                    -0.0095                  330.05253388541604
0.0025                    -0.0085                  325.8702171784284
0.0025                    -0.0075                  320.8293852027149
0.0025                    -0.0065                  314.9544124639035
0.0025                    -0.0055                  309.06939261221726
0.0025                    -0.0045                  303.958944176164
0.0025                    -0.0035                  299.0901406432707
0.0025                    -0.0025                  295.023521196699
0.0025                    -0.0015                  294.18608794775844
0.0025                    -5.0E-4                  293.3486546988179
0.0025                    5.0E-4                   293.25567117517306
0.0025                    0.0015                   293.8954929124628
0.0025                    0.0025                   294.5353146497526
0.0025                    0.0035                   297.8717568566318
0.0025                    0.0045                   301.87922587759994
0.0025                    0.0055                   306.2146953465172
0.0025                    0.0065                   311.8162211063979
0.0025                    0.0075                   317.4173460284412
0.0025                    0.0085                   321.93175472844854
0.0025                    0.0095                   325.2026893886265
0.0025                    0.0105                   328.4736240488045
0.0025                    0.0115                   331.44523580593864
0.0025                    0.0125                   333.9007042264049
0.0025                    0.0135                   336.35617264687113
0.0025                    0.0145                   338.36976892091656
0.0025                    0.0155                   339.60188353341823
0.0025                    0.0165                   340.8637391789763
0.0025                    0.0175                   341.7254924568066
0.0025                    0.0185                   342.4069856954793
0.0025                    0.0195                   342.97485871900744
0.0025                    0.0205                   343.5354107824638
0.0025                    0.0215                   344.0959628459202
0.0025                    0.0225                   344.59510723221
0.0025                    0.0235                   345.5207594175511
0.0025                    0.0245                   346.4464116028922
0.0025                    0.0255                   348.0106516293147
0.0025                    0.0265                   350.1060581423035
0.0025                    0.0275                   352.2541621614088
0.0025                    0.0285                   355.48051792831757
0.0025                    0.0295                   359.06716592441074
0.0025                    0.0305                   361.90959106817843
0.0025                    0.0315                   363.4707782716664
0.0035                    -0.0315                  369.27784619038033
0.0035                    -0.0305                  367.1731169970572
0.0035                    -0.0295                  364.94016345317704
0.0035                    -0.0285                  361.31073080873335
0.0035                    -0.0275                  357.83659253257696
0.0035                    -0.0265                  354.57956089745244
0.0035                    -0.0255                  352.2304883441272
0.0035                    -0.0245                  351.51073565946143
0.0035                    -0.0235                  350.3496437106529
0.0035                    -0.0225                  349.8152252228654
0.0035                    -0.0215                  350.1784789336539
0.0035                    -0.0205                  349.62686937103507
0.0035                    -0.0195                  349.76367281088875
0.0035                    -0.0185                  350.0998112843347
0.0035                    -0.0175                  349.67107761027034
0.0035                    -0.0165                  348.9108566034546
0.0035                    -0.0155                  348.0276479768511
0.0035                    -0.0145                  346.97360405588717
0.0035                    -0.0135                  343.5235891932573
0.0035                    -0.0125                  340.8664313670185
0.0035                    -0.0115                  338.0769646621935
0.0035                    -0.0105                  333.2136119965578
0.0035                    -0.0095                  328.90752177552304
0.0035                    -0.0085                  325.0982195306014
0.0035                    -0.0075                  321.7317395666516
0.0035                    -0.0065                  315.85676682784015
0.0035                    -0.0055                  309.74536951146086
0.0035                    -0.0045                  303.840351113254
0.0035                    -0.0035                  298.97154758036066
0.0035                    -0.0025                  295.867050273572
0.0035                    -0.0015                  294.0305741289776
0.0035                    -5.0E-4                  293.3393173799734
0.0035                    5.0E-4                   293.2418123993174
0.0035                    0.0015                   293.7450097554156
0.0035                    0.0025                   295.1523184087113
0.0035                    0.0035                   297.55047183705545
0.0035                    0.0045                   301.5579408580236
0.0035                    0.0055                   306.8813598292202
0.0035                    0.0065                   312.54636596731046
0.0035                    0.0075                   318.12855547286443
0.0035                    0.0085                   320.70203890374086
0.0035                    0.0095                   323.70153843650024
0.0035                    0.0105                   327.01369205642385
0.0035                    0.0115                   330.4686390937095
0.0035                    0.0125                   333.102671262257
0.0035                    0.0135                   336.21756532456993
0.0035                    0.0145                   340.0561136751248
0.0035                    0.0155                   341.2882282876265
0.0035                    0.0165                   342.8806090748373
0.0035                    0.0175                   344.3718721675946
0.0035                    0.0185                   345.0533654062672
0.0035                    0.0195                   345.29919537564535
0.0035                    0.0205                   345.6766046200105
0.0035                    0.0215                   346.09802425062924
0.0035                    0.0225                   345.7948437011019
0.0035                    0.0235                   346.47741284177664
0.0035                    0.0245                   347.06237420451805
0.0035                    0.0255                   347.84844877276487
0.0035                    0.0265                   349.9438552857537
0.0035                    0.0275                   351.75188278362424
0.0035                    0.0285                   354.74103897426096
0.0035                    0.0295                   358.21471830325254
0.0035                    0.0305                   360.8579141126361
0.0035                    0.0315                   362.5936831987143
0.0045                    -0.0315                  368.5494143146652
0.0045                    -0.0305                  366.20103150978326
0.0045                    -0.0295                  363.8701188458828
0.0045                    -0.0285                  360.41362215398476
0.0045                    -0.0275                  356.93223635761456
0.0045                    -0.0265                  353.4580980814581
0.0045                    -0.0255                  352.4867363483747
0.0045                    -0.0245                  351.76698366370886
0.0045                    -0.0235                  350.98783752147114
0.0045                    -0.0225                  351.3600242909065
0.0045                    -0.0215                  351.7322110603418
0.0045                    -0.0205                  351.9927107157505
0.0045                    -0.0195                  352.52834952839373
0.0045                    -0.0185                  353.0639883410369
0.0045                    -0.0175                  352.83695525626274
0.0045                    -0.0165                  352.0135079585788
0.0045                    -0.0155                  351.19006066089497
0.0045                    -0.0145                  348.64187384464077
0.0045                    -0.0135                  345.1918589820109
0.0045                    -0.0125                  341.77181761113934
0.0045                    -0.0115                  337.33638789208885
0.0045                    -0.0105                  332.47303522645313
0.0045                    -0.0095                  327.79571454388116
0.0045                    -0.0085                  324.4833710559026
0.0045                    -0.0075                  321.17102756792394
0.0045                    -0.0065                  316.6677416909665
0.0045                    -0.0055                  310.4213464107046
0.0045                    -0.0045                  304.17495113044265
0.0045                    -0.0035                  299.830794007133
0.0045                    -0.0025                  296.91254204091933
0.0045                    -0.0015                  293.99429007470565
0.0045                    -5.0E-4                  293.61781792724554
0.0045                    5.0E-4                   293.5203129465895
0.0045                    0.0015                   293.71185617573167
0.0045                    0.0025                   295.9027517543253
0.0045                    0.0035                   298.093647332919
0.0045                    0.0045                   301.84104611885454
0.0045                    0.0055                   307.5480243119232
0.0045                    0.0065                   313.25500250499186
0.0045                    0.0075                   317.0427956128179
0.0045                    0.0085                   319.61627904369425
0.0045                    0.0095                   322.2003874843741
0.0045                    0.0105                   325.62380828777077
0.0045                    0.0115                   329.0787553250565
0.0045                    0.0125                   332.3877851018029
0.0045                    0.0135                   336.317100683769
0.0045                    0.0145                   340.24641626573526
0.0045                    0.0155                   343.13122525656865
0.0045                    0.0165                   344.8974789706983
0.0045                    0.0175                   346.66373268482783
0.0045                    0.0185                   347.4441708840213
0.0045                    0.0195                   347.64352500218524
0.0045                    0.0205                   347.84287912034915
0.0045                    0.0215                   347.6945514301633
0.0045                    0.0225                   347.39137088063603
0.0045                    0.0235                   347.3361024407084
0.0045                    0.0245                   347.55168590933397
0.0045                    0.0255                   347.7885571681846
0.0045                    0.0265                   349.43556411688576
0.0045                    0.0275                   351.1887678952064
0.0045                    0.0285                   354.28536507958677
0.0045                    0.0295                   357.53787815629784
0.0045                    0.0305                   360.0536225027162
0.0045                    0.0315                   362.03635422595977
0.0055                    -0.0315                  367.82098243895007
0.0055                    -0.0305                  365.692614648185
0.0055                    -0.0295                  363.48913425766756
0.0055                    -0.0285                  359.75748688001545
0.0055                    -0.0275                  356.27601186773427
0.0055                    -0.0265                  354.07437708191867
0.0055                    -0.0255                  353.18770793391667
0.0055                    -0.0245                  352.44582606492247
0.0055                    -0.0235                  352.7822787417319
0.0055                    -0.0225                  353.42583576939955
0.0055                    -0.0215                  353.8037125706305
0.0055                    -0.0205                  355.01223716578295
0.0055                    -0.0195                  355.7253661341255
0.0055                    -0.0185                  356.21462091259656
0.0055                    -0.0175                  355.8859784703668
0.0055                    -0.0165                  355.06284804063296
0.0055                    -0.0155                  353.33693416758297
0.0055                    -0.0145                  349.28688286561635
0.0055                    -0.0135                  345.8405413425687
0.0055                    -0.0125                  340.81555203020577
0.0055                    -0.0115                  334.7902954550954
0.0055                    -0.0105                  329.9297569769374
0.0055                    -0.0095                  325.68064123185616
0.0055                    -0.0085                  322.14485637682856
0.0055                    -0.0075                  318.8307410082364
0.0055                    -0.0065                  316.3355026648552
0.0055                    -0.0055                  310.69404148590763
0.0055                    -0.0045                  304.55786147827075
0.0055                    -0.0035                  299.6115445513434
0.0055                    -0.0025                  296.6887746487056
0.0055                    -0.0015                  294.40102910146754
0.0055                    -5.0E-4                  293.57846208088944
0.0055                    5.0E-4                   293.48081889152843
0.0055                    0.0015                   293.9362511281843
0.0055                    0.0025                   295.6197248843879
0.0055                    0.0035                   297.8144254510529
0.0055                    0.0045                   301.8267347252929
0.0055                    0.0055                   307.4355272212056
0.0055                    0.0065                   312.532106428389
0.0055                    0.0075                   315.1692848493788
0.0055                    0.0085                   317.7415496020966
0.0055                    0.0095                   320.1734158818938
0.0055                    0.0105                   322.925671534067
0.0055                    0.0115                   326.3741819532609
0.0055                    0.0125                   330.67068706880787
0.0055                    0.0135                   334.8829198731466
0.0055                    0.0145                   338.80078927784456
0.0055                    0.0155                   344.06062509526885
0.0055                    0.0165                   346.3441126963689
0.0055                    0.0175                   348.19033085588853
0.0055                    0.0185                   350.2939361807588
0.0055                    0.0195                   350.4937422716698
0.0055                    0.0205                   350.4350255659711
0.0055                    0.0215                   350.0530443453581
0.0055                    0.0225                   349.7481297538857
0.0055                    0.0235                   348.8199767595552
0.0055                    0.0245                   348.6493375812863
0.0055                    0.0255                   349.0068449771196
0.0055                    0.0265                   349.6208901988092
0.0055                    0.0275                   350.6256530067885
0.0055                    0.0285                   353.8312905438034
0.0055                    0.0295                   357.0866391445368
0.0055                    0.0305                   359.50538584151343
0.0055                    0.0315                   361.4792840012339
0.0065                    -0.0315                  367.5490110477852
0.0065                    -0.0305                  365.40742550800957
0.0065                    -0.0295                  363.0612141030745
0.0065                    -0.0285                  359.3199118110237
0.0065                    -0.0275                  355.9425363395889
0.0065                    -0.0265                  354.939891267979
0.0065                    -0.0255                  353.93724619636913
0.0065                    -0.0245                  353.4667749763105
0.0065                    -0.0235                  354.51559892489075
0.0065                    -0.0225                  355.56442287347096
0.0065                    -0.0215                  356.3793816747649
0.0065                    -0.0205                  357.7593434566297
0.0065                    -0.0195                  358.98780814016663
0.0065                    -0.0185                  358.9585195836955
0.0065                    -0.0175                  358.63570287622935
0.0065                    -0.0165                  358.10379816605337
0.0065                    -0.0155                  354.2708812804889
0.0065                    -0.0145                  350.04330524547277
0.0065                    -0.0135                  346.06507306857276
0.0065                    -0.0125                  339.15664127532267
0.0065                    -0.0115                  332.2482094820725
0.0065                    -0.0105                  327.3043240179384
0.0065                    -0.0095                  323.3858574035286
0.0065                    -0.0085                  319.49307869358637
0.0065                    -0.0075                  316.623984560527
0.0065                    -0.0065                  314.26709299580307
0.0065                    -0.0055                  310.89635962204335
0.0065                    -0.0045                  305.42123692570857
0.0065                    -0.0035                  300.2742212637429
0.0065                    -0.0025                  296.25881583422387
0.0065                    -0.0015                  294.97206175357115
0.0065                    -5.0E-4                  293.7378515194762
0.0065                    5.0E-4                   293.60159541418955
0.0065                    0.0015                   294.33777682377604
0.0065                    0.0025                   295.16998024691634
0.0065                    0.0035                   298.3910771867963
0.0065                    0.0045                   302.51183010537295
0.0065                    0.0055                   307.1835354975079
0.0065                    0.0065                   310.4622583685634
0.0065                    0.0075                   313.11572170582133
0.0065                    0.0085                   315.7086083677823
0.0065                    0.0095                   317.95593673350413
0.0065                    0.0105                   320.2032650992261
0.0065                    0.0115                   323.7843188187519