% Model:              SIMBench260525.mph
% Version:            COMSOL 6.2.0.339
% Date:               May 27 2026, 18:27
% Dimension:          2
% Nodes:              4096
% Expressions:        1
% Description:        温度
% Length unit:        m
% x                       y                        T (K)
5.0E-4                    -0.0315                  307.25367958985345
5.0E-4                    -0.0305                  306.1260414089225
5.0E-4                    -0.0295                  304.9971950029038
5.0E-4                    -0.0285                  304.0998873069401
5.0E-4                    -0.0275                  303.3336366131413
5.0E-4                    -0.0265                  302.5673859193426
5.0E-4                    -0.0255                  302.2605986071253
5.0E-4                    -0.0245                  301.8562086294646
5.0E-4                    -0.0235                  301.4518186518038
5.0E-4                    -0.0225                  301.3460158836676
5.0E-4                    -0.0215                  301.20571396943035
5.0E-4                    -0.0205                  301.06541205519306
5.0E-4                    -0.0195                  300.9709389475802
5.0E-4                    -0.0185                  300.8264397108318
5.0E-4                    -0.0175                  300.6819404740834
5.0E-4                    -0.0165                  300.44024466202137
5.0E-4                    -0.0155                  300.1008048766515
5.0E-4                    -0.0145                  299.7613650912818
5.0E-4                    -0.0135                  299.1079451272269
5.0E-4                    -0.0125                  297.84517091268845
5.0E-4                    -0.0115                  296.5823966981499
5.0E-4                    -0.0105                  295.7057844719766
5.0E-4                    -0.0095                  295.2539107208163
5.0E-4                    -0.0085                  294.80203696965594
5.0E-4                    -0.0075                  294.0692145975853
5.0E-4                    -0.0065                  293.6474129572405
5.0E-4                    -0.0055                  293.25389394187664
5.0E-4                    -0.0045                  293.1547114637507
5.0E-4                    -0.0035                  293.14827254302213
5.0E-4                    -0.0025                  293.14719207191933
5.0E-4                    -0.0015                  293.14906031771085
5.0E-4                    -5.0E-4                  293.150497053805
5.0E-4                    5.0E-4                   293.1504345571539
5.0E-4                    0.0015                   293.14889525700266
5.0E-4                    0.0025                   293.14686619738933
5.0E-4                    0.0035                   293.1478448307328
5.0E-4                    0.0045                   293.1543297983397
5.0E-4                    0.0055                   293.2515400924649
5.0E-4                    0.0065                   293.64442632861756
5.0E-4                    0.0075                   294.0650347104565
5.0E-4                    0.0085                   294.79899713345515
5.0E-4                    0.0095                   295.27756978515566
5.0E-4                    0.0105                   295.75614243685624
5.0E-4                    0.0115                   296.65639510934216
5.0E-4                    0.0125                   298.00272774835395
5.0E-4                    0.0135                   299.3490603873657
5.0E-4                    0.0145                   299.9991213742205
5.0E-4                    0.0155                   300.30455201649363
5.0E-4                    0.0165                   300.6099826587668
5.0E-4                    0.0175                   300.861651230337
5.0E-4                    0.0185                   301.00421033678174
5.0E-4                    0.0195                   301.1467694432265
5.0E-4                    0.0205                   301.2605068964811
5.0E-4                    0.0215                   301.3879192102852
5.0E-4                    0.0225                   301.5153315240892
5.0E-4                    0.0235                   301.6367477645681
5.0E-4                    0.0245                   302.00596108818996
5.0E-4                    0.0255                   302.37517441181177
5.0E-4                    0.0265                   302.68062539285614
5.0E-4                    0.0275                   303.30947845863284
5.0E-4                    0.0285                   303.9383315244096
5.0E-4                    0.0295                   304.6298822467436
5.0E-4                    0.0305                   305.5887408161494
5.0E-4                    0.0315                   306.54759938555526
0.0015                    -0.0315                  306.448106385094
0.0015                    -0.0305                  305.3536499538075
0.0015                    -0.0295                  304.30921173594857
0.0015                    -0.0285                  303.4702941792512
0.0015                    -0.0275                  302.66535154117975
0.0015                    -0.0265                  302.22395115001126
0.0015                    -0.0255                  302.0484860310397
0.0015                    -0.0245                  301.7449896045278
0.0015                    -0.0235                  301.54519871672983
0.0015                    -0.0225                  301.5235268084082
0.0015                    -0.0215                  301.4275813001191
0.0015                    -0.0205                  301.32284984824304
0.0015                    -0.0195                  301.2572342045099
0.0015                    -0.0185                  301.14416197728025
0.0015                    -0.0175                  300.95567884235356
0.0015                    -0.0165                  300.7170533256528
0.0015                    -0.0155                  300.4190745410941
0.0015                    -0.0145                  299.97989746982773
0.0015                    -0.0135                  299.4281636936254
0.0015                    -0.0125                  298.4588146489296
0.0015                    -0.0115                  297.3673516864836
0.0015                    -0.0105                  296.4625503204629
0.0015                    -0.0095                  295.8289779704096
0.0015                    -0.0085                  295.134826848913
0.0015                    -0.0075                  294.19974495351664
0.0015                    -0.0065                  293.63051085419755
0.0015                    -0.0055                  293.36205744317004
0.0015                    -0.0045                  293.147341735747
0.0015                    -0.0035                  293.1415088163368
0.0015                    -0.0025                  293.1466719062773
0.0015                    -0.0015                  293.1506452894124
0.0015                    -5.0E-4                  293.15152203305695
0.0015                    5.0E-4                   293.1514618895434
0.0015                    0.0015                   293.1504577994591
0.0015                    0.0025                   293.1461080687492
0.0015                    0.0035                   293.14054531208046
0.0015                    0.0045                   293.1498052880512
0.0015                    0.0055                   293.3579994562342
0.0015                    0.0065                   293.6246366631291
0.0015                    0.0075                   294.20701411323387
0.0015                    0.0085                   295.14426560660655
0.0015                    0.0095                   295.82652393212504
0.0015                    0.0105                   296.4875786428293
0.0015                    0.0115                   297.3778209626405
0.0015                    0.0125                   298.52728194958274
0.0015                    0.0135                   299.5141398195963
0.0015                    0.0145                   300.06680884091145
0.0015                    0.0155                   300.47746491014703
0.0015                    0.0165                   300.7668359157644
0.0015                    0.0175                   301.0366359475255
0.0015                    0.0185                   301.2324706248576
0.0015                    0.0195                   301.3562015492465
0.0015                    0.0205                   301.4569248547478
0.0015                    0.0215                   301.5736829846215
0.0015                    0.0225                   301.6575285627719
0.0015                    0.0235                   301.6913119930283
0.0015                    0.0245                   301.93793170605835
0.0015                    0.0255                   302.19148275446844
0.0015                    0.0265                   302.365373190061
0.0015                    0.0275                   302.85428464919124
0.0015                    0.0285                   303.4721719118122
0.0015                    0.0295                   304.07266321404995
0.0015                    0.0305                   304.92893681619324
0.0015                    0.0315                   305.91801261368374
0.0025                    -0.0315                  305.64253318033457
0.0025                    -0.0305                  304.65081827323587
0.0025                    -0.0295                  303.73758324881504
0.0025                    -0.0285                  302.88942133455976
0.0025                    -0.0275                  302.25354941088773
0.0025                    -0.0265                  302.07340423107803
0.0025                    -0.0255                  301.8840478054276
0.0025                    -0.0245                  301.76636176786656
0.0025                    -0.0235                  301.7399667839466
0.0025                    -0.0225                  301.70529369628446
0.0025                    -0.0215                  301.67929308989284
0.0025                    -0.0205                  301.61566643031404
0.0025                    -0.0195                  301.55203977073523
0.0025                    -0.0185                  301.4613580264733
0.0025                    -0.0175                  301.22347660237216
0.0025                    -0.0165                  300.98559517827107
0.0025                    -0.0155                  300.6963795931645
0.0025                    -0.0145                  300.14144255492914
0.0025                    -0.0135                  299.5889642501377
0.0025                    -0.0125                  299.0135363069186
0.0025                    -0.0115                  298.10836157464644
0.0025                    -0.0105                  297.19953267005184
0.0025                    -0.0095                  296.2875244476468
0.0025                    -0.0085                  295.35129997359843
0.0025                    -0.0075                  294.4150754995501
0.0025                    -0.0065                  293.66457086007364
0.0025                    -0.0055                  293.44743224349156
0.0025                    -0.0045                  293.2302936269096
0.0025                    -0.0035                  293.14083758747245
0.0025                    -0.0025                  293.14599600101195
0.0025                    -0.0015                  293.1511544145515
0.0025                    -5.0E-4                  293.1524907040979
0.0025                    5.0E-4                   293.1524345121037
0.0025                    0.0015                   293.1507856046271
0.0025                    0.0025                   293.14522511832035
0.0025                    0.0035                   293.1396646320136
0.0025                    0.0045                   293.23135192926213
0.0025                    0.0055                   293.44070509499636
0.0025                    0.0065                   293.65005826073065
0.0025                    0.0075                   294.42840615360643
0.0025                    0.0085                   295.36936296071235
0.0025                    0.0095                   296.3102009257462
0.0025                    0.0105                   297.2048574078246
0.0025                    0.0115                   298.0960261044678
0.0025                    0.0125                   298.9612035609188
0.0025                    0.0135                   299.5166856876718
0.0025                    0.0145                   300.0699290144832
0.0025                    0.0155                   300.6380830388452
0.0025                    0.0165                   300.9270915866471
0.0025                    0.0175                   301.1965638696084
0.0025                    0.0185                   301.4769206118406
0.0025                    0.0195                   301.58631666344456
0.0025                    0.0205                   301.68646040090994
0.0025                    0.0215                   301.7734547363301
0.0025                    0.0225                   301.8181269681794
0.0025                    0.0235                   301.8627992000287
0.0025                    0.0245                   301.8799599587051
0.0025                    0.0255                   302.00773549722754
0.0025                    0.0265                   302.1551279951118
0.0025                    0.0275                   302.39909083974965
0.0025                    0.0285                   303.0017184488673
0.0025                    0.0295                   303.60554821442287
0.0025                    0.0305                   304.3569990063918
0.0025                    0.0315                   305.28876334108423
0.0035                    -0.0315                  305.0900175091601
0.0035                    -0.0305                  304.1392956737002
0.0035                    -0.0295                  303.2027112121603
0.0035                    -0.0285                  302.4603084408582
0.0035                    -0.0275                  302.3188580983679
0.0035                    -0.0265                  302.1676610557741
0.0035                    -0.0255                  301.97830463012366
0.0035                    -0.0245                  302.08456842606205
0.0035                    -0.0235                  302.1448385947988
0.0035                    -0.0225                  302.11016550713657
0.0035                    -0.0215                  302.1661549397053
0.0035                    -0.0205                  302.1839097263568
0.0035                    -0.0195                  302.120283066778
0.0035                    -0.0185                  301.8742492846015
0.0035                    -0.0175                  301.5939837636769
0.0035                    -0.0165                  301.3561023395758
0.0035                    -0.0155                  300.7822716561099
0.0035                    -0.0145                  300.14899564964315
0.0035                    -0.0135                  299.59651734485175
0.0035                    -0.0125                  298.9071242682008
0.0035                    -0.0115                  298.11033455608
0.0035                    -0.0105                  297.2015056514855
0.0035                    -0.0095                  296.2772808225959
0.0035                    -0.0085                  295.34574510325706
0.0035                    -0.0075                  294.4095206292087
0.0035                    -0.0065                  293.7780700316229
0.0035                    -0.0055                  293.40800742531883
0.0035                    -0.0045                  293.2249663933674
0.0035                    -0.0035                  293.1486424812553
0.0035                    -0.0025                  293.14456284419543
0.0035                    -0.0015                  293.14999901279225
0.0035                    -5.0E-4                  293.15463501497953
0.0035                    5.0E-4                   293.1545788229854
0.0035                    0.0015                   293.1494998281928
0.0035                    0.0025                   293.143773662854
0.0035                    0.0035                   293.1510994588594
0.0035                    0.0045                   293.2202479817168
0.0035                    0.0055                   293.40166125597955
0.0035                    0.0065                   293.7864221385162
0.0035                    0.0075                   294.4167082703199
0.0035                    0.0085                   295.35766507742585
0.0035                    0.0095                   296.2974661335678
0.0035                    0.0105                   297.22200570530333
0.0035                    0.0115                   298.11317440194654
0.0035                    0.0125                   298.79124119950325
0.0035                    0.0135                   299.3731525788219
0.0035                    0.0145                   299.9263959056334
0.0035                    0.0155                   300.606435459728
0.0035                    0.0165                   301.17831023974725
0.0035                    0.0175                   301.44778252270845
0.0035                    0.0185                   301.8106305382377
0.0035                    0.0195                   302.10281473281316
0.0035                    0.0205                   302.2029584702785
0.0035                    0.0215                   302.2117492069025
0.0035                    0.0225                   302.21671602371157
0.0035                    0.0235                   302.2613882555609
0.0035                    0.0245                   302.14823851422153
0.0035                    0.0255                   302.19796802477464
0.0035                    0.0265                   302.3206560371253
0.0035                    0.0275                   302.3764085270572
0.0035                    0.0285                   302.5703209269266
0.0035                    0.0295                   303.1468356430646
0.0035                    0.0305                   303.9277694033002
0.0035                    0.0315                   304.83158253647207
0.0045                    -0.0315                  304.5943844136079
0.0045                    -0.0305                  303.63975019315546
0.0045                    -0.0295                  302.72076393354365
0.0045                    -0.0285                  302.52820470669974
0.0045                    -0.0275                  302.3862800724999
0.0045                    -0.0265                  302.24435543830015
0.0045                    -0.0255                  302.2837983070761
0.0045                    -0.0245                  302.40277508425754
0.0045                    -0.0235                  302.521751861439
0.0045                    -0.0225                  302.5672358252222
0.0045                    -0.0215                  302.64703662413206
0.0045                    -0.0205                  302.7268374230419
0.0045                    -0.0195                  302.59438369495945
0.0045                    -0.0185                  302.28723783344947
0.0045                    -0.0175                  301.9800919719395
0.0045                    -0.0165                  301.5487692586053
0.0045                    -0.0155                  300.86816371905536
0.0045                    -0.0145                  300.18755817950534
0.0045                    -0.0135                  299.52935071676904
0.0045                    -0.0125                  298.800712229483
0.0045                    -0.0115                  298.072073742197
0.0045                    -0.0105                  297.1947941494589
0.0045                    -0.0095                  296.2670065141132
0.0045                    -0.0085                  295.3392188787674
0.0045                    -0.0075                  294.5926084155561
0.0045                    -0.0065                  293.9664895100479
0.0045                    -0.0055                  293.3685826071461
0.0045                    -0.0045                  293.2697845586686
0.0045                    -0.0035                  293.1934606465565
0.0045                    -0.0025                  293.1431966486947
0.0045                    -0.0015                  293.1488652597816
0.0045                    -5.0E-4                  293.1545338708685
0.0045                    5.0E-4                   293.15411666951263
0.0045                    0.0015                   293.1482343331902
0.0045                    0.0025                   293.1423519968678
0.0045                    0.0035                   293.19347697172645
0.0045                    0.0045                   293.26262549458386
0.0045                    0.0055                   293.3748197247706
0.0045                    0.0065                   293.9771193388078
0.0045                    0.0075                   294.579418952845
0.0045                    0.0085                   295.34554880623637
0.0045                    0.0095                   296.28473134138943
0.0045                    0.0105                   297.2239138765425
0.0045                    0.0115                   298.0251363226152
0.0045                    0.0125                   298.6212788380877
0.0045                    0.0135                   299.21742135356016
0.0045                    0.0145                   299.8456848476641
0.0045                    0.0155                   300.57478788061076
0.0045                    0.0165                   301.3038909135575
0.0045                    0.0175                   301.7438244274131
0.0045                    0.0185                   302.1443404646348
0.0045                    0.0195                   302.54485650185654
0.0045                    0.0205                   302.6748448197171
0.0045                    0.0215                   302.6502725622448
0.0045                    0.0225                   302.6257003047725
0.0045                    0.0235                   302.56359379564316
0.0045                    0.0245                   302.43980886055124
0.0045                    0.0255                   302.3680351668792
0.0045                    0.0265                   302.4070962092334
0.0045                    0.0275                   302.4697848807226
0.0045                    0.0285                   302.6636972805921
0.0045                    0.0295                   302.85760968046145
0.0045                    0.0305                   303.51475783989093
0.0045                    0.0315                   304.431265619448
0.0055                    -0.0315                  304.0987513180556
0.0055                    -0.0305                  303.40846745109735
0.0055                    -0.0295                  302.7390880200853
0.0055                    -0.0285                  302.6125603024714
0.0055                    -0.0275                  302.47431690759856
0.0055                    -0.0265                  302.4385207716854
0.0055                    -0.0255                  302.637366280187
0.0055                    -0.0245                  302.7520350279613
0.0055                    -0.0235                  302.8771083820472
0.0055                    -0.0225                  303.0953234625706
0.0055                    -0.0215                  303.1738786460683
0.0055                    -0.0205                  303.25243382956603
0.0055                    -0.0195                  302.9874438187539
0.0055                    -0.0185                  302.6797630584405
0.0055                    -0.0175                  302.3500461313556
0.0055                    -0.0165                  301.4831861606534
0.0055                    -0.0155                  300.80032183603157
0.0055                    -0.0145                  300.0986252198709
0.0055                    -0.0135                  299.1695436862772
0.0055                    -0.0125                  298.4397643973948
0.0055                    -0.0115                  297.7434613903973
0.0055                    -0.0105                  297.24892313135484
0.0055                    -0.0095                  296.32179543665
0.0055                    -0.0085                  295.3958148826351
0.0055                    -0.0075                  294.5635435197345
0.0055                    -0.0065                  293.9338614271133
0.0055                    -0.0055                  293.45086406166905
0.0055                    -0.0045                  293.2644447970198
0.0055                    -0.0035                  293.18732723507196
0.0055                    -0.0025                  293.15045897132455
0.0055                    -0.0015                  293.1493646825942
0.0055                    -5.0E-4                  293.154876861787
0.0055                    5.0E-4                   293.1546945994997
0.0055                    0.0015                   293.14882111388863
0.0055                    0.0025                   293.150795197576
0.0055                    0.0035                   293.1855188980746
0.0055                    0.0045                   293.2554172202192
0.0055                    0.0055                   293.4506958787523
0.0055                    0.0065                   293.93791070308055
0.0055                    0.0075                   294.54515603699394
0.0055                    0.0085                   295.4008360566396
0.0055                    0.0095                   296.3346936893922
0.0055                    0.0105                   297.272472507779
0.0055                    0.0115                   297.6833094516077
0.0055                    0.0125                   298.2815465845607
0.0055                    0.0135                   298.87978371751365
0.0055                    0.0145                   299.6452927146041
0.0055                    0.0155                   300.376195239342
0.0055                    0.0165                   301.1070977640799
0.0055                    0.0175                   302.08129435439315
0.0055                    0.0185                   302.48179071513107
0.0055                    0.0195                   302.882287075869
0.0055                    0.0205                   303.1913649843311
0.0055                    0.0215                   303.1703549138533
0.0055                    0.0225                   303.11692988193863
0.0055                    0.0235                   302.90236104353374
0.0055                    0.0245                   302.78303820331803
0.0055                    0.0255                   302.6635700528274
0.0055                    0.0265                   302.54397525537513
0.0055                    0.0275                   302.56316123438813
0.0055                    0.0285                   302.7263972915572
0.0055                    0.0295                   302.8755531987822
0.0055                    0.0305                   303.39900730759393
0.0055                    0.0315                   304.03116527772494
0.0065                    -0.0315                  304.09541684983014
0.0065                    -0.0305                  303.426791537639
0.0065                    -0.0295                  302.7874277594913
0.0065                    -0.0285                  302.6745811404507
0.0065                    -0.0275                  302.5617345214101
0.0065                    -0.0265                  302.7451868775151
0.0065                    -0.0255                  302.9532230754524
0.0065                    -0.0245                  303.1060410688272
0.0065                    -0.0235                  303.31286651639425
0.0065                    -0.0225                  303.5631981885277
0.0065                    -0.0215                  303.72285338463684
0.0065                    -0.0205                  303.6087686922395
0.0065                    -0.0195                  303.350485040855
0.0065                    -0.0185                  303.0625730074956
0.0065                    -0.0175                  302.3593862578555
0.0065                    -0.0165                  301.4613033713871
0.0065                    -0.0155                  300.67265416721744
0.0065                    -0.0145                  299.7906954353438
0.0065                    -0.0135                  298.8267728121598
0.0065                    -0.0125                  297.9893891319962
0.0065                    -0.0115                  297.5082250817853
0.0065                    -0.0105                  297.1146173123118
0.0065                    -0.0095                  296.3974655317035
0.0065                    -0.0085                  295.4746224593648
0.0065                    -0.0075                  294.5526152880737
0.0065                    -0.0065                  293.85124837200505
0.0065                    -0.0055                  293.5593183986774
0.0065                    -0.0045                  293.26738842534974
0.0065                    -0.0035                  293.1872885625905
0.0065                    -0.0025                  293.1665112523557
0.0065                    -0.0015                  293.15015610348786
0.0065                    -5.0E-4                  293.1523773549038
0.0065                    5.0E-4                   293.15241922624625
0.0065                    0.0015                   293.1496900370305
0.0065                    0.0025                   293.16490967535225
0.0065                    0.0035                   293.18137378662004
0.0065                    0.0045                   293.2882997707697
0.0065                    0.0055                   293.55478992324345
0.0065                    0.0065                   293.8475721548281
0.0065                    0.0075                   294.59143613974555
0.0065                    0.0085                   295.49190499971263
0.0065                    0.0095                   296.40382130382966
0.0065                    0.0105                   297.01676624319845
0.0065                    0.0115                   297.39948479073325