% Model:              SIMBench260525.mph
% Version:            COMSOL 6.2.0.339
% Date:               May 27 2026, 17:42
% Dimension:          2
% Nodes:              4096
% Expressions:        1
% Description:        温度
% Length unit:        m
% x                       y                        T (K)
5.0E-4                    -0.0315                  320.0127251120913
5.0E-4                    -0.0305                  318.5686502639012
5.0E-4                    -0.0295                  317.12416641818527
5.0E-4                    -0.0285                  315.1688809356027
5.0E-4                    -0.0275                  313.50977013214873
5.0E-4                    -0.0265                  312.08644947304265
5.0E-4                    -0.0255                  311.3117271788495
5.0E-4                    -0.0245                  310.41799685744326
5.0E-4                    -0.0235                  309.8251370991306
5.0E-4                    -0.0225                  309.27488797985495
5.0E-4                    -0.0215                  308.6337879727341
5.0E-4                    -0.0205                  308.36821265393934
5.0E-4                    -0.0195                  307.9905458467611
5.0E-4                    -0.0185                  307.61287903958294
5.0E-4                    -0.0175                  307.45450820448565
5.0E-4                    -0.0165                  307.1397544785859
5.0E-4                    -0.0155                  306.82502383229195
5.0E-4                    -0.0145                  306.38770499721716
5.0E-4                    -0.0135                  305.7625367296533
5.0E-4                    -0.0125                  305.09876240049397
5.0E-4                    -0.0115                  303.6269792491865
5.0E-4                    -0.0105                  301.72131338768804
5.0E-4                    -0.0095                  299.9662098346553
5.0E-4                    -0.0085                  298.3701276240174
5.0E-4                    -0.0075                  296.7587196015158
5.0E-4                    -0.0065                  295.2230471691254
5.0E-4                    -0.0055                  295.190789071301
5.0E-4                    -0.0045                  295.1585309734766
5.0E-4                    -0.0035                  294.21849403490364
5.0E-4                    -0.0025                  293.7191115632065
5.0E-4                    -0.0015                  293.24964228848086
5.0E-4                    -5.0E-4                  293.1286678878596
5.0E-4                    5.0E-4                   293.1290585121703
5.0E-4                    0.0015                   293.25135212266105
5.0E-4                    0.0025                   293.7299950644979
5.0E-4                    0.0035                   294.2387785222269
5.0E-4                    0.0045                   295.18974193355234
5.0E-4                    0.0055                   295.23981726567285
5.0E-4                    0.0065                   295.2898925977934
5.0E-4                    0.0075                   296.88082589677947
5.0E-4                    0.0085                   298.560166972885
5.0E-4                    0.0095                   300.20811165783203
5.0E-4                    0.0105                   301.95086612038943
5.0E-4                    0.0115                   303.8382832088751
5.0E-4                    0.0125                   305.29331483468883
5.0E-4                    0.0135                   305.9522662309631
5.0E-4                    0.0145                   306.5730021821971
5.0E-4                    0.0155                   307.0091652443228
5.0E-4                    0.0165                   307.32572190124716
5.0E-4                    0.0175                   307.64227855817154
5.0E-4                    0.0185                   307.8101006964252
5.0E-4                    0.0195                   308.1950084861654
5.0E-4                    0.0205                   308.5745633988277
5.0E-4                    0.0215                   308.87726623874346
5.0E-4                    0.0225                   309.53534301669885
5.0E-4                    0.0235                   310.0874773991817
5.0E-4                    0.0245                   310.7302962044738
5.0E-4                    0.0255                   311.62232181338743
5.0E-4                    0.0265                   312.3708093721929
5.0E-4                    0.0275                   313.794844660795
5.0E-4                    0.0285                   315.38203520643515
5.0E-4                    0.0295                   317.134476631991
5.0E-4                    0.0305                   318.48725303317605
5.0E-4                    0.0315                   319.8400294343611
0.0015                    -0.0315                  319.2546121704961
0.0015                    -0.0305                  317.85850616144603
0.0015                    -0.0295                  316.10907981414596
0.0015                    -0.0285                  313.90767187422483
0.0015                    -0.0275                  312.07972748937107
0.0015                    -0.0265                  311.34176886309467
0.0015                    -0.0255                  310.7443569756033
0.0015                    -0.0245                  309.8934000415209
0.0015                    -0.0235                  309.716201638412
0.0015                    -0.0225                  309.44043461562933
0.0015                    -0.0215                  308.9399695237223
0.0015                    -0.0205                  308.9161686453977
0.0015                    -0.0195                  308.749081939222
0.0015                    -0.0185                  308.51441260785623
0.0015                    -0.0175                  308.4793294688177
0.0015                    -0.0165                  308.2739694339302
0.0015                    -0.0155                  307.96174263102154
0.0015                    -0.0145                  307.6510850454115
0.0015                    -0.0135                  307.08624798418884
0.0015                    -0.0125                  306.3076037804766
0.0015                    -0.0115                  305.4851442821262
0.0015                    -0.0105                  303.5845124630652
0.0015                    -0.0095                  302.05105733736656
0.0015                    -0.0085                  300.50121732981665
0.0015                    -0.0075                  298.9123936118708
0.0015                    -0.0065                  297.4066519535327
0.0015                    -0.0055                  296.5258600025164
0.0015                    -0.0045                  295.9088808321484
0.0015                    -0.0035                  294.50815843826337
0.0015                    -0.0025                  293.7057491867975
0.0015                    -0.0015                  293.37335962021484
0.0015                    -5.0E-4                  293.10573709111816
0.0015                    5.0E-4                   293.108266860572
0.0015                    0.0015                   293.3762766922407
0.0015                    0.0025                   293.71438072694
0.0015                    0.0035                   294.5411160136099
0.0015                    0.0045                   295.9662138377021
0.0015                    0.0055                   296.56727096091623
0.0015                    0.0065                   297.50439505349675
0.0015                    0.0075                   299.0375339330734
0.0015                    0.0085                   300.68836456028055
0.0015                    0.0095                   302.24232062958106
0.0015                    0.0105                   303.7685608760876
0.0015                    0.0115                   305.6446397775423
0.0015                    0.0125                   306.46054169854057
0.0015                    0.0135                   307.2349571788483
0.0015                    0.0145                   307.78813342130735
0.0015                    0.0155                   308.10502395144795
0.0015                    0.0165                   308.42177464750154
0.0015                    0.0175                   308.62091812136174
0.0015                    0.0185                   308.66571862835326
0.0015                    0.0195                   308.92524106226256
0.0015                    0.0205                   309.08818982834663
0.0015                    0.0215                   309.12993029738254
0.0015                    0.0225                   309.7080233554904
0.0015                    0.0235                   309.95490529494987
0.0015                    0.0245                   310.23946791126906
0.0015                    0.0255                   311.0875617688209
0.0015                    0.0265                   311.6573520452658
0.0015                    0.0275                   312.55159676595264
0.0015                    0.0285                   314.18887993091107
0.0015                    0.0295                   316.112619617287
0.0015                    0.0305                   317.715155384838
0.0015                    0.0315                   319.09376486485417
0.0025                    -0.0315                  318.49649922890086
0.0025                    -0.0305                  316.8814284048112
0.0025                    -0.0295                  314.97257794161555
0.0025                    -0.0285                  312.7849007220597
0.0025                    -0.0275                  311.44049496956393
0.0025                    -0.0265                  310.80839453775553
0.0025                    -0.0255                  310.17629410594725
0.0025                    -0.0245                  309.9333839462438
0.0025                    -0.0235                  309.74959926035234
0.0025                    -0.0225                  309.56581457446094
0.0025                    -0.0215                  309.6194566593578
0.0025                    -0.0205                  309.59473401873254
0.0025                    -0.0195                  309.5796836470121
0.0025                    -0.0185                  309.61224395639186
0.0025                    -0.0175                  309.57570209031417
0.0025                    -0.0165                  309.4627472832061
0.0025                    -0.0155                  309.1519339534517
0.0025                    -0.0145                  308.8411206236973
0.0025                    -0.0135                  308.2479994956559
0.0025                    -0.0125                  307.4348972442276
0.0025                    -0.0115                  306.62179499279944
0.0025                    -0.0105                  305.3806740972537
0.0025                    -0.0095                  303.84855650978074
0.0025                    -0.0085                  302.3164389223078
0.0025                    -0.0075                  300.8589557401535
0.0025                    -0.0065                  299.35347826474367
0.0025                    -0.0055                  297.822061493292
0.0025                    -0.0045                  296.30944409097424
0.0025                    -0.0035                  294.9071790704997
0.0025                    -0.0025                  293.73273142634724
0.0025                    -0.0015                  293.4649649311891
0.0025                    -5.0E-4                  293.1971984360309
0.0025                    5.0E-4                   293.2006511217589
0.0025                    0.0015                   293.4688849713966
0.0025                    0.0025                   293.7371188210344
0.0025                    0.0035                   294.95074923361767
0.0025                    0.0045                   296.3783250535263
0.0025                    0.0055                   297.9395866330409
0.0025                    0.0065                   299.4731075609396
0.0025                    0.0075                   301.00622024002905
0.0025                    0.0085                   302.47877867725924
0.0025                    0.0095                   303.99921443849564
0.0025                    0.0105                   305.5196501997319
0.0025                    0.0115                   306.73159423626714
0.0025                    0.0125                   307.5459632913708
0.0025                    0.0135                   308.3603323464745
0.0025                    0.0145                   308.9394858981407
0.0025                    0.0155                   309.2568637120081
0.0025                    0.0165                   309.57882696319933
0.0025                    0.0175                   309.6843061481996
0.0025                    0.0185                   309.7298617773065
0.0025                    0.0195                   309.69929252673234
0.0025                    0.0205                   309.73933386708717
0.0025                    0.0215                   309.779375207442
0.0025                    0.0225                   309.7694613803048
0.0025                    0.0235                   309.95797330070053
0.0025                    0.0245                   310.14648522109627
0.0025                    0.0255                   310.47757058707236
0.0025                    0.0265                   310.96935658112204
0.0025                    0.0275                   311.51368499478343
0.0025                    0.0285                   313.13093039287213
0.0025                    0.0295                   315.04309127488904
0.0025                    0.0305                   316.82919899587955
0.0025                    0.0315                   318.34863841384697
0.0035                    -0.0315                  317.36907308345275
0.0035                    -0.0305                  315.56765301049677
0.0035                    -0.0295                  313.7782063949919
0.0035                    -0.0285                  312.0193739094385
0.0035                    -0.0275                  311.4007519801381
0.0035                    -0.0265                  310.77540688492076
0.0035                    -0.0255                  310.36817677525187
0.0035                    -0.0245                  310.4920840596259
0.0035                    -0.0235                  310.3594523099542
0.0035                    -0.0225                  310.44850318236524
0.0035                    -0.0215                  310.8792327754086
0.0035                    -0.0205                  310.8545101347833
0.0035                    -0.0195                  311.0495722726047
0.0035                    -0.0185                  311.29771796652267
0.0035                    -0.0175                  311.26117610044497
0.0035                    -0.0165                  310.9401261534579
0.0035                    -0.0155                  310.591636239938
0.0035                    -0.0145                  310.249062141875
0.0035                    -0.0135                  309.1128668598474
0.0035                    -0.0125                  308.17673837482585
0.0035                    -0.0115                  307.21764085701335
0.0035                    -0.0105                  305.7805192869895
0.0035                    -0.0095                  304.26546621279067
0.0035                    -0.0085                  302.856108415585
0.0035                    -0.0075                  301.5999041970561
0.0035                    -0.0065                  300.09442672164624
0.0035                    -0.0055                  298.203463325974
0.0035                    -0.0045                  296.28849466785806
0.0035                    -0.0035                  294.8862296473835
0.0035                    -0.0025                  293.96585874036555
0.0035                    -0.0015                  293.41026904884933
0.0035                    -5.0E-4                  293.1957919847268
0.0035                    5.0E-4                   293.194312719969
0.0035                    0.0015                   293.4135936464932
0.0035                    0.0025                   293.98273532269997
0.0035                    0.0035                   294.9230338837389
0.0035                    0.0045                   296.3506097036475
0.0035                    0.0055                   298.3122707918395
0.0035                    0.0065                   300.19475283159056
0.0035                    0.0075                   301.7256688600614
0.0035                    0.0085                   302.96589178159326
0.0035                    0.0095                   304.37784498959996
0.0035                    0.0105                   305.880467675003
0.0035                    0.0115                   307.319781570225
0.0035                    0.0125                   308.2459927314058
0.0035                    0.0135                   309.21303776522007
0.0035                    0.0145                   310.34292445637783
0.0035                    0.0155                   310.66030227024527
0.0035                    0.0165                   311.03583340564046
0.0035                    0.0175                   311.34907848100084
0.0035                    0.0185                   311.3946341101077
0.0035                    0.0195                   311.131259919635
0.0035                    0.0205                   311.000746100025
0.0035                    0.0215                   310.9648254543699
0.0035                    0.0225                   310.5332682740331
0.0035                    0.0235                   310.59911893850415
0.0035                    0.0245                   310.6350146342386
0.0035                    0.0255                   310.6940125491478
0.0035                    0.0265                   311.18579854319745
0.0035                    0.0275                   311.5159226339165
0.0035                    0.0285                   312.3548780653764
0.0035                    0.0295                   313.94307417610105
0.0035                    0.0305                   315.69543731737383
0.0035                    0.0315                   317.3691958575056
0.0045                    -0.0315                  316.42910429494145
0.0045                    -0.0305                  314.50929242454094
0.0045                    -0.0295                  312.62227877512015
0.0045                    -0.0285                  311.9794465596266
0.0045                    -0.0275                  311.3602354271001
0.0045                    -0.0265                  310.74161349779973
0.0045                    -0.0255                  310.79278687399153
0.0045                    -0.0245                  310.91669415836554
0.0045                    -0.0235                  310.9934552425361
0.0045                    -0.0225                  311.42862656544577
0.0045                    -0.0215                  311.8637978883554
0.0045                    -0.0205                  312.1970697893897
0.0045                    -0.0195                  312.51946089819734
0.0045                    -0.0185                  312.84185200700495
0.0045                    -0.0175                  312.793825229862
0.0045                    -0.0165                  312.4184192656496
0.0045                    -0.0155                  312.04301330143716
0.0045                    -0.0145                  311.1829571584155
0.0045                    -0.0135                  310.0467618763878
0.0045                    -0.0125                  308.9185795054241
0.0045                    -0.0115                  307.57816671883774
0.0045                    -0.0105                  306.1410451488139
0.0045                    -0.0095                  304.6944128541694
0.0045                    -0.0085                  303.44599775225754
0.0045                    -0.0075                  302.1975826503458
0.0045                    -0.0065                  300.6803995520866
0.0045                    -0.0055                  298.58486515865604
0.0045                    -0.0045                  296.48933076522553
0.0045                    -0.0035                  295.13515225227
0.0045                    -0.0025                  294.26125777156756
0.0045                    -0.0015                  293.3873632908651
0.0045                    -5.0E-4                  293.29753146910986
0.0045                    5.0E-4                   293.29605220435207
0.0045                    0.0015                   293.40448130208875
0.0045                    0.0025                   294.28029317863326
0.0045                    0.0035                   295.1561050551777
0.0045                    0.0045                   296.5678703613773
0.0045                    0.0055                   298.68495495063814
0.0045                    0.0065                   300.80203953989906
0.0045                    0.0075                   302.2712042982847
0.0045                    0.0085                   303.5114272198167
0.0045                    0.0095                   304.75647554070434
0.0045                    0.0105                   306.2102068270409
0.0045                    0.0115                   307.649520722263
0.0045                    0.0125                   308.9642331888224
0.0045                    0.0135                   310.12203328344975
0.0045                    0.0145                   311.2798333780771
0.0045                    0.0155                   312.08892184497205
0.0045                    0.0165                   312.49283984808153
0.0045                    0.0175                   312.89675785119096
0.0045                    0.0185                   312.87816927560453
0.0045                    0.0195                   312.5818433377955
0.0045                    0.0205                   312.28551739998636
0.0045                    0.0215                   311.92885184202896
0.0045                    0.0225                   311.4972946616922
0.0045                    0.0235                   311.19638183343477
0.0045                    0.0245                   311.0668089664019
0.0045                    0.0255                   310.94339446270664
0.0045                    0.0265                   311.2075523327566
0.0045                    0.0275                   311.5068359431109
0.0045                    0.0285                   312.3927048737146
0.0045                    0.0295                   313.34665366454914
0.0045                    0.0305                   314.7688151902988
0.0045                    0.0315                   316.64935934158564
0.0055                    -0.0315                  315.4891355064302
0.0055                    -0.0305                  313.9823770315058
0.0055                    -0.0295                  312.5650268028851
0.0055                    -0.0285                  311.95910965053406
0.0055                    -0.0275                  311.3398912664725
0.0055                    -0.0265                  311.18230170898596
0.0055                    -0.0255                  311.3862964303564
0.0055                    -0.0245                  311.5017994656989
0.0055                    -0.0235                  312.06195898144233
0.0055                    -0.0225                  312.6646315498589
0.0055                    -0.0215                  313.10259811087496
0.0055                    -0.0205                  313.6730303165235
0.0055                    -0.0195                  314.0531520643905
0.0055                    -0.0185                  314.3401524353053
0.0055                    -0.0175                  314.02000678427794
0.0055                    -0.0165                  313.6457115442673
0.0055                    -0.0155                  312.98367221918903
0.0055                    -0.0145                  311.6082610785287
0.0055                    -0.0135                  310.4742563793827
0.0055                    -0.0125                  308.8850919340725
0.0055                    -0.0115                  307.05893564012587
0.0055                    -0.0105                  305.62333639550053
0.0055                    -0.0095                  304.27745069903654
0.0055                    -0.0085                  303.01010824158493
0.0055                    -0.0075                  301.76045159537006
0.0055                    -0.0065                  300.6412411312871
0.0055                    -0.0055                  298.6892090697732
0.0055                    -0.0045                  296.64020696727766
0.0055                    -0.0035                  295.04782061853166
0.0055                    -0.0025                  294.172895011244
0.0055                    -0.0015                  293.4992753349374
0.0055                    -5.0E-4                  293.2796552558224
0.0055                    5.0E-4                   293.27820261652454
0.0055                    0.0015                   293.5018571198128
0.0055                    0.0025                   294.191421434057
0.0055                    0.0035                   295.06876179358943
0.0055                    0.0045                   296.693444902675
0.0055                    0.0055                   298.7846209487214
0.0055                    0.0065                   300.70227290817195
0.0055                    0.0075                   301.84813844274595
0.0055                    0.0085                   303.0882376805969
0.0055                    0.0095                   304.3417491690041
0.0055                    0.0105                   305.6817605491395
0.0055                    0.0115                   307.11500658624243
0.0055                    0.0125                   308.99881194698895
0.0055                    0.0135                   310.5038168002524
0.0055                    0.0145                   311.657501509065
0.0055                    0.0155                   313.1238142104105
0.0055                    0.0165                   313.6840014235153
0.0055                    0.0175                   314.08655743062076
0.0055                    0.0185                   314.42035297829557
0.0055                    0.0195                   314.1241119870922
0.0055                    0.0205                   313.7252853084198
0.0055                    0.0215                   313.22261960601486
0.0055                    0.0225                   312.7903127006979
0.0055                    0.0235                   312.0254364254864
0.0055                    0.0245                   311.6745904761739
0.0055                    0.0255                   311.5622080534232
0.0055                    0.0265                   311.4613582571026
0.0055                    0.0275                   311.4977492523052
0.0055                    0.0285                   312.34556194082427
0.0055                    0.0295                   313.14886682040094
0.0055                    0.0305                   314.42007532348595
0.0055                    0.0315                   315.9400834543746
0.0065                    -0.0315                  315.33642316123985
0.0065                    -0.0305                  313.87454652987356
0.0065                    -0.0295                  312.53255609084954
0.0065                    -0.0285                  311.9271522735227
0.0065                    -0.0275                  311.4359353394622
0.0065                    -0.0265                  311.71081261510744
0.0065                    -0.0255                  311.9856898907527
0.0065                    -0.0245                  312.2260838540077
0.0065                    -0.0235                  313.07999526351193
0.0065                    -0.0225                  313.93390667301605
0.0065                    -0.0215                  314.450405461584
0.0065                    -0.0205                  315.0481771078795
0.0065                    -0.0195                  315.59649607779
0.0065                    -0.0185                  315.4961027424404
0.0065                    -0.0175                  315.17659837266046
0.0065                    -0.0165                  314.83418681106104
0.0065                    -0.0155                  313.5097987951739
0.0065                    -0.0145                  312.0633395937564
0.0065                    -0.0135                  310.74172622383463
0.0065                    -0.0125                  308.61731262819546
0.0065                    -0.0115                  306.49289903255635
0.0065                    -0.0105                  304.9845838368499
0.0065                    -0.0095                  303.686269923609
0.0065                    -0.0085                  302.39023335791535
0.0065                    -0.0075                  301.21186173371206
0.0065                    -0.0065                  300.1123097170318
0.0065                    -0.0055                  298.74578369114977
0.0065                    -0.0045                  296.9531591560942
0.0065                    -0.0035                  295.2839183368875
0.0065                    -0.0025                  294.02210300430914
0.0065                    -0.0015                  293.66269736711934
0.0065                    -5.0E-4                  293.31730114429956
0.0065                    5.0E-4                   293.3268761645259
0.0065                    0.0015                   293.66461782396004
0.0065                    0.0025                   294.03872857639215
0.0065                    0.0035                   295.3369100037481
0.0065                    0.0045                   297.0072359609202
0.0065                    0.0055                   298.83403869249037
0.0065                    0.0065                   300.16164353940934
0.0065                    0.0075                   301.2828481318477
0.0065                    0.0085                   302.4775774542385
0.0065                    0.0095                   303.74920633529047
0.0065                    0.0105                   305.0208352163424
0.0065                    0.0115                   306.60425185738677