% Model:              SIMBench260525.mph
% Version:            COMSOL 6.2.0.339
% Date:               May 27 2026, 17:26
% Dimension:          2
% Nodes:              4096
% Expressions:        1
% Description:        温度
% Length unit:        m
% x                       y                        T (K)
% mirrored_by_python_y_to_minus_y, coord_match_decimals=12
0.0005 -0.0315 293.082922753
0.0005 -0.0305 293.114759113
0.0005 -0.0295 293.146595473
0.0005 -0.0285 293.149248666
0.0005 -0.0275 293.164661599
0.0005 -0.0265 293.180074532
0.0005 -0.0255 293.162626014
0.0005 -0.0245 293.152078006
0.0005 -0.0235 293.219052406
0.0005 -0.0225 293.369580234
0.0005 -0.0215 293.709173524
0.0005 -0.0205 293.670688098
0.0005 -0.0195 293.632202672
0.0005 -0.0185 294.210469561
0.0005 -0.0175 294.434220663
0.0005 -0.0165 294.909814202
0.0005 -0.0155 297.316378787
0.0005 -0.0145 299.513715293
0.0005 -0.0135 301.352695938
0.0005 -0.0125 302.709951755
0.0005 -0.0115 304.293325043
0.0005 -0.0105 305.279270696
0.0005 -0.0095 305.870608383
0.0005 -0.0085 306.541309672
0.0005 -0.0075 306.825115281
0.0005 -0.0065 307.097071487
0.0005 -0.0055 307.372001797
0.0005 -0.0045 307.434678421
0.0005 -0.0035 307.547126415
0.0005 -0.0025 307.659574408
0.0005 -0.0015 307.646423139
0.0005 -0.0005 307.661359451
0.0005 0.0005 307.67237406
0.0005 0.0015 307.637527252
0.0005 0.0025 307.616019439
0.0005 0.0035 307.589793119
0.0005 0.0045 307.564382067
0.0005 0.0055 307.549713773
0.0005 0.0065 307.526472983
0.0005 0.0075 307.522859035
0.0005 0.0085 307.529068902
0.0005 0.0095 307.521892288
0.0005 0.0105 307.567048211
0.0005 0.0115 307.617116958
0.0005 0.0125 307.671635503
0.0005 0.0135 307.830084512
0.0005 0.0145 307.98853352
0.0005 0.0155 308.140676808
0.0005 0.0165 308.220930583
0.0005 0.0175 308.303455733
0.0005 0.0185 308.501863276
0.0005 0.0195 308.616346992
0.0005 0.0205 308.741683578
0.0005 0.0215 308.91753407
0.0005 0.0225 309.090649855
0.0005 0.0235 309.260448919
0.0005 0.0245 309.541424642
0.0005 0.0255 309.872673927
0.0005 0.0265 310.148210508
0.0005 0.0275 310.853018424
0.0005 0.0285 311.637677498
0.0005 0.0295 312.440301576
0.0005 0.0305 313.475214762
0.0005 0.0315 314.511876119
0.0015 -0.0315 293.192473586
0.0015 -0.0305 293.207592023
0.0015 -0.0295 293.222614827
0.0015 -0.0285 293.205494947
0.0015 -0.0275 293.215551602
0.0015 -0.0265 293.202615419
0.0015 -0.0255 293.167001383
0.0015 -0.0245 293.163206049
0.0015 -0.0235 293.237258456
0.0015 -0.0225 293.555518038
0.0015 -0.0215 293.967521545
0.0015 -0.0205 294.256038326
0.0015 -0.0195 294.557276958
0.0015 -0.0185 295.456241579
0.0015 -0.0175 295.908027458
0.0015 -0.0165 297.773305358
0.0015 -0.0155 300.401912211
0.0015 -0.0145 302.636773532
0.0015 -0.0135 303.690362036
0.0015 -0.0125 304.631749476
0.0015 -0.0115 306.16763601
0.0015 -0.0105 306.369712345
0.0015 -0.0095 306.679000468
0.0015 -0.0085 307.223704504
0.0015 -0.0075 307.239102261
0.0015 -0.0065 307.354854573
0.0015 -0.0055 307.520148688
0.0015 -0.0045 307.481982886
0.0015 -0.0035 307.525781045
0.0015 -0.0025 307.557270531
0.0015 -0.0015 307.510408811
0.0015 -0.0005 307.506856012
0.0015 0.0005 307.481040837
0.0015 0.0015 307.434783681
0.0015 0.0025 307.409731601
0.0015 0.0035 307.370710431
0.0015 0.0045 307.32825162
0.0015 0.0055 307.313583326
0.0015 0.0065 307.276763241
0.0015 0.0075 307.24663941
0.0015 0.0085 307.249408574
0.0015 0.0095 307.230702153
0.0015 0.0105 307.233454715
0.0015 0.0115 307.281240753
0.0015 0.0125 307.323553573
0.0015 0.0135 307.419827249
0.0015 0.0145 307.587556113
0.0015 0.0155 307.766381264
0.0015 0.0165 307.884488191
0.0015 0.0175 308.072209873
0.0015 0.0185 308.326320179
0.0015 0.0195 308.472112337
0.0015 0.0205 308.636200128
0.0015 0.0215 308.815456622
0.0015 0.0225 308.989019844
0.0015 0.0235 309.152731661
0.0015 0.0245 309.32429125
0.0015 0.0255 309.64637453
0.0015 0.0265 309.86218266
0.0015 0.0275 310.197711596
0.0015 0.0285 310.976895792
0.0015 0.0295 311.747494981
0.0015 0.0305 312.689855958
0.0015 0.0315 313.842446917
0.0025 -0.0315 293.302761873
0.0025 -0.0305 293.317041111
0.0025 -0.0295 293.302240472
0.0025 -0.0285 293.270800073
0.0025 -0.0275 293.261734265
0.0025 -0.0265 293.213335417
0.0025 -0.0255 293.171376752
0.0025 -0.0245 293.181173467
0.0025 -0.0235 293.367644208
0.0025 -0.0225 293.741455843
0.0025 -0.0215 294.165388324
0.0025 -0.0205 294.710708793
0.0025 -0.0195 295.897013026
0.0025 -0.0185 296.807143835
0.0025 -0.0175 297.952862748
0.0025 -0.0165 300.588475488
0.0025 -0.0155 303.224088228
0.0025 -0.0145 304.925112672
0.0025 -0.0135 305.817521231
0.0025 -0.0125 306.709929791
0.0025 -0.0115 307.131527793
0.0025 -0.0105 307.333604127
0.0025 -0.0095 307.535680462
0.0025 -0.0085 307.581120204
0.0025 -0.0075 307.596517961
0.0025 -0.0065 307.611915718
0.0025 -0.0055 307.576045628
0.0025 -0.0045 307.537858048
0.0025 -0.0035 307.499937684
0.0025 -0.0025 307.45377076
0.0025 -0.0015 307.406960745
0.0025 -0.0005 307.362218691
0.0025 0.0005 307.316098162
0.0025 0.0015 307.269977633
0.0025 0.0025 307.226341197
0.0025 0.0035 307.183868585
0.0025 0.0045 307.141395973
0.0025 0.0055 307.099967475
0.0025 0.0065 307.063199032
0.0025 0.0075 307.026430588
0.0025 0.0085 306.9940775
0.0025 0.0095 306.976226855
0.0025 0.0105 306.958376211
0.0025 0.0115 306.972472729
0.0025 0.0125 307.015460379
0.0025 0.0135 307.055353762
0.0025 0.0145 307.204731478
0.0025 0.0155 307.383984105
0.0025 0.0165 307.562024163
0.0025 0.0175 307.816193982
0.0025 0.0185 308.071032505
0.0025 0.0195 308.359248174
0.0025 0.0205 308.538281829
0.0025 0.0215 308.717315484
0.0025 0.0225 308.925955841
0.0025 0.0235 309.094188713
0.0025 0.0245 309.262421585
0.0025 0.0255 309.444910741
0.0025 0.0265 309.681664503
0.0025 0.0275 309.919547476
0.0025 0.0285 310.464543201
0.0025 0.0295 311.265591173
0.0025 0.0305 312.160275795
0.0025 0.0315 313.173017715
0.0035 -0.0315 293.412422284
0.0035 -0.0305 293.431821265
0.0035 -0.0295 293.42036808
0.0035 -0.0285 293.370772547
0.0035 -0.0275 293.275806469
0.0035 -0.0265 293.223143302
0.0035 -0.0255 293.197193904
0.0035 -0.0245 293.233865729
0.0035 -0.0235 293.39770952
0.0035 -0.0225 294.038336406
0.0035 -0.0215 294.881566771
0.0035 -0.0205 296.081635967
0.0035 -0.0195 298.510130734
0.0035 -0.0185 299.420261543
0.0035 -0.0175 301.025179537
0.0035 -0.0165 303.185094183
0.0035 -0.0155 305.718957339
0.0035 -0.0145 305.947017082
0.0035 -0.0135 306.639910169
0.0035 -0.0125 307.326838035
0.0035 -0.0115 307.337217926
0.0035 -0.0105 307.513110703
0.0035 -0.0095 307.621630443
0.0035 -0.0085 307.587894086
0.0035 -0.0075 307.603291843
0.0035 -0.0065 307.588191761
0.0035 -0.0055 307.548748758
0.0035 -0.0045 307.510561178
0.0035 -0.0035 307.474101291
0.0035 -0.0025 307.434610152
0.0035 -0.0015 307.387800136
0.0035 -0.0005 307.351211418
0.0035 0.0005 307.310703463
0.0035 0.0015 307.264827344
0.0035 0.0025 307.22774517
0.0035 0.0035 307.187186793
0.0035 0.0045 307.14341468
0.0035 0.0055 307.093871846
0.0035 0.0065 307.054458262
0.0035 0.0075 307.006632749
0.0035 0.0085 306.937355037
0.0035 0.0095 306.916227757
0.0035 0.0105 306.87275294
0.0035 0.0115 306.811484804
0.0035 0.0125 306.854472454
0.0035 0.0135 306.861710739
0.0035 0.0145 306.891532123
0.0035 0.0155 307.070784751
0.0035 0.0165 307.245556893
0.0035 0.0175 307.449201946
0.0035 0.0185 307.704040469
0.0035 0.0195 308.166706235
0.0035 0.0205 308.478114147
0.0035 0.0215 308.677402936
0.0035 0.0225 309.024056302
0.0035 0.0235 309.247263115
0.0035 0.0245 309.401080492
0.0035 0.0255 309.517534409
0.0035 0.0265 309.729299038
0.0035 0.0275 309.984327544
0.0035 0.0285 310.251157427
0.0035 0.0295 310.928052598
0.0035 0.0305 311.861402746
0.0035 0.0315 312.855226257
0.0045 -0.0315 293.506912438
0.0045 -0.0305 293.53723328
0.0045 -0.0295 293.497882227
0.0045 -0.0285 293.391058898
0.0045 -0.0275 293.294879892
0.0045 -0.0265 293.23681144
0.0045 -0.0255 293.228943681
0.0045 -0.0245 293.267813048
0.0045 -0.0235 293.599015515
0.0045 -0.0225 294.617463874
0.0045 -0.0215 295.607539813
0.0045 -0.0205 297.790880469
0.0045 -0.0195 300.405068046
0.0045 -0.0185 302.304132364
0.0045 -0.0175 304.10960822
0.0045 -0.0165 305.915084075
0.0045 -0.0155 306.946780544
0.0045 -0.0145 307.174840288
0.0045 -0.0135 307.462299107
0.0045 -0.0125 307.622349872
0.0045 -0.0115 307.632729763
0.0045 -0.0105 307.692617279
0.0045 -0.0095 307.658778543
0.0045 -0.0085 307.623946459
0.0045 -0.0075 307.601539451
0.0045 -0.0065 307.561820231
0.0045 -0.0055 307.522101012
0.0045 -0.0045 307.484025754
0.0045 -0.0035 307.448264899
0.0045 -0.0025 307.412504044
0.0045 -0.0015 307.374182958
0.0045 -0.0005 307.339124782
0.0045 0.0005 307.304066607
0.0045 0.0015 307.26487227
0.0045 0.0025 307.227790096
0.0045 0.0035 307.190505
0.0045 0.0045 307.142479885
0.0045 0.0055 307.092937051
0.0045 0.0065 307.045717491
0.0045 0.0075 306.978349054
0.0045 0.0085 306.909071342
0.0045 0.0095 306.851239601
0.0045 0.0105 306.781659985
0.0045 0.0115 306.71208037
0.0045 0.0125 306.679635165
0.0045 0.0135 306.668067717
0.0045 0.0145 306.656500268
0.0045 0.0155 306.75530199
0.0045 0.0165 306.929089622
0.0045 0.0175 307.102877254
0.0045 0.0185 307.461772859
0.0045 0.0195 307.929579143
0.0045 0.0205 308.397385427
0.0045 0.0215 308.721561644
0.0045 0.0225 309.06821501
0.0045 0.0235 309.400337516
0.0045 0.0245 309.523023442
0.0045 0.0255 309.639477359
0.0045 0.0265 309.782143443
0.0045 0.0275 310.048513265
0.0045 0.0285 310.314883087
0.0045 0.0295 310.626663906
0.0045 0.0305 311.647247671
0.0045 0.0315 312.676583571
0.0055 -0.0315 293.599356445
0.0055 -0.0305 293.568894652
0.0055 -0.0295 293.510468607
0.0055 -0.0285 293.409276321
0.0055 -0.0275 293.313953314
0.0055 -0.0265 293.254058142
0.0055 -0.0255 293.211206262
0.0055 -0.0245 293.249722165
0.0055 -0.0235 293.659803557
0.0055 -0.0225 294.459446191
0.0055 -0.0215 296.174786124
0.0055 -0.0205 298.699740449
0.0055 -0.0195 301.394984958
0.0055 -0.0185 304.057384819
0.0055 -0.0175 305.824549157
0.0055 -0.0165 307.261489186
0.0055 -0.0155 307.36735269
0.0055 -0.0145 307.601592559
0.0055 -0.0135 307.735090976
0.0055 -0.0125 307.735199292
0.0055 -0.0115 307.74583085
0.0055 -0.0105 307.752096631
0.0055 -0.0095 307.730492317
0.0055 -0.0085 307.695660772
0.0055 -0.0075 307.714599039
0.0055 -0.0065 307.689132335
0.0055 -0.0055 307.649412023
0.0055 -0.0045 307.703017777
0.0055 -0.0035 307.670098831
0.0055 -0.0025 307.641339031
0.0055 -0.0015 307.687741582
0.0055 -0.0005 307.653048423
0.0055 0.0005 307.63107967
0.0055 0.0015 307.635663662
0.0055 0.0025 307.599533667
0.0055 0.0035 307.559465512
0.0055 0.0045 307.512491706
0.0055 0.0055 307.464627874
0.0055 0.0065 307.370673266
0.0055 0.0075 307.274929142
0.0055 0.0085 307.207802348
0.0055 0.0095 307.050839188
0.0055 0.0105 306.944140023
0.0055 0.0115 306.876712513
0.0055 0.0125 306.695060803
0.0055 0.0135 306.65086505
0.0055 0.0145 306.639761255
0.0055 0.0155 306.522751303
0.0055 0.0165 306.683766157
0.0055 0.0175 306.841206497
0.0055 0.0185 306.970287934
0.0055 0.0195 307.440275751
0.0055 0.0205 307.952532702
0.0055 0.0215 308.465318689
0.0055 0.0225 308.814002666
0.0055 0.0235 309.271236471
0.0055 0.0245 309.607492505
0.0055 0.0255 309.721413228
0.0055 0.0265 309.87150208
0.0055 0.0275 310.092931511
0.0055 0.0285 310.360367232
0.0055 0.0295 310.708290476
0.0055 0.0305 311.591146834
0.0055 0.0315 312.497940886
0.0065 -0.0315 293.603521217
0.0065 -0.0305 293.574299984
0.0065 -0.0295 293.521023739
0.0065 -0.0285 293.416726469
0.0065 -0.0275 293.311524626
0.0065 -0.0265 293.265023425
0.0065 -0.0255 293.209782056
0.0065 -0.0245 293.408125857
0.0065 -0.0235 293.854583677
0.0065 -0.0225 294.639127973
0.0065 -0.0215 297.067262578
0.0065 -0.0205 299.496667224
0.0065 -0.0195 302.170336653
0.0065 -0.0185 304.830651812
0.0065 -0.0175 307.136016437
0.0065 -0.0165 307.578632314
0.0065 -0.0155 307.641902644
0.0065 -0.0145 307.817718695
0.0065 -0.0135 307.810060588
0.0065 -0.0125 307.800373096
0.0065 -0.0115 307.80711276
0.0065 -0.0105 307.810357641
0.0065 -0.0095 307.811819449
0.0065 -0.0085 307.802277128
0.0065 -0.0075 307.838659539
0.0065 -0.0065 307.859183259
0.0065 -0.0055 307.872227273
0.0065 -0.0045 307.934420555
0.0065 -0.0035 307.96068672
0.0065 -0.0025 307.988527882
0.0065 -0.0015 308.046846573
0.0065 -0.0005 308.056566512
0.0065 0.0005 308.067785958
0.0065 0.0015 308.088231107
0.0065 0.0025 308.07063881
0.0065 0.0035 308.024447081
0.0065 0.0045 307.978135342
0.0065 0.0055 307.918453902
0.0065 0.0065 307.785530221
0.0065 0.0075 307.652606539
0.0065 0.0085 307.544024366
0.0065 0.0095 307.347705388
0.0065 0.0105 307.160324901
0.0065 0.0115 307.033160554
0.0065 0.0125 306.831244364
0.0065 0.0135 306.66544561
0.0065 0.0145 306.590923633
0.0065 0.0155 306.473913681
0.0065 0.0165 306.449519681
0.0065 0.0175 306.552786411
0.0065 0.0185 306.636054335
0.0065 0.0195 306.909377899
0.0065 0.0205 307.493747449
0.0065 0.0215 308.080176751
0.0065 0.0225 308.526384273
0.0065 0.0235 309.095477072
0.0065 0.0245 309.664569871
0.0065 0.0255 309.809702855
0.0065 0.0265 309.977981852
0.0065 0.0275 310.14626085
0.0065 0.0285 310.476526724
0.0065 0.0295 310.824449969
0.0065 0.0305 311.660618809
0.0065 0.0315 312.577451894
0.0075 -0.0315 293.605575675
0.0075 -0.0305 293.577202135
0.0075 -0.0295 293.520479025
0.0075 -0.0285 293.409715807
0.0075 -0.0275 293.298711377
0.0075 -0.0265 293.252210176
0.0075 -0.0255 293.223855579
0.0075 -0.0245 293.542051401
0.0075 -0.0235 293.967463795
0.0075 -0.0225 295.001869425
0.0075 -0.0215 297.571643843
0.0075 -0.0205 300.320329317
0.0075 -0.0195 303.144156127
0.0075 -0.0185 305.830386622
0.0075 -0.0175 307.706900637
0.0075 -0.0165 307.795841605
0.0075 -0.0155 307.862866722
0.0075 -0.0145 307.910095941
0.0075 -0.0135 307.900335143
0.0075 -0.0125 307.890574344
0.0075 -0.0115 307.93996186
0.0075 -0.0105 307.943334957
0.0075 -0.0095 307.946708054
0.0075 -0.0085 308.061501198
0.0075 -0.0075 308.098006679
0.0075 -0.0065 308.162184402
0.0075 -0.0055 308.304970152
0.0075 -0.0045 308.367114864
0.0075 -0.0035 308.488367766
0.0075 -0.0025 308.598559548
0.0075 -0.0015 308.657213161
0.0075 -0.0005 308.776430833
0.0075 0.0005 308.813215029
0.0075 0.0015 308.835073677
0.0075 0.0025 308.860656031
0.0075 0.0035 308.817302664
0.0075 0.0045 308.773949297
0.0075 0.0055 308.64504916
0.0075 0.0065 308.516399135
0.0075 0.0075 308.38774911
0.0075 0.0085 308.119877094
0.0075 0.0095 307.928678675
0.0075 0.0105 307.727879353
0.0075 0.0115 307.393850868
0.0075 0.0125 307.197434939
0.0075 0.0135 306.953589254
0.0075 0.0145 306.69047354
0.0075 0.0155 306.577431223
0.0075 0.0165 306.400493888
0.0075 0.0175 306.362262836
0.0075 0.0185 306.447231739
0.0075 0.0195 306.438971395
0.0075 0.0205 306.957328351
0.0075 0.0215 307.546791354
0.0075 0.0225 308.11495126
0.0075 0.0235 308.732272031
0.0075 0.0245 309.349592803
0.0075 0.0255 309.940054471
0.0075 0.0265 310.125772235
0.0075 0.0275 310.31149
0.0075 0.0285 310.632042068
0.0075 0.0295 310.954373736
0.0075 0.0305 311.773239186
0.0075 0.0315 312.708298362
0.0085 -0.0315 293.604125457
0.0085 -0.0305 293.554731933
0.0085 -0.0295 293.493270127
0.0085 -0.0285 293.391913997
0.0085 -0.0275 293.289295988
0.0085 -0.0265 293.274143672
0.0085 -0.0255 293.270792898
0.0085 -0.0245 293.565423098
0.0085 -0.0235 294.059055305
0.0085 -0.0225 295.383093365
0.0085 -0.0215 298.138693784
0.0085 -0.0205 301.056545779
0.0085 -0.0195 304.404259684
0.0085 -0.0185 307.127582925
0.0085 -0.0175 307.740246687
0.0085 -0.0165 307.895251572
0.0085 -0.0155 307.958031874
0.0085 -0.0145 307.996246721
0.0085 -0.0135 308.011120559
0.0085 -0.0125 308.042325168
0.0085 -0.0115 308.142462004
0.0085 -0.0105 308.177224627
0.0085 -0.0095 308.285645095
0.0085 -0.0085 308.477561276
0.0085 -0.0075 308.538874176
0.0085 -0.0065 308.741598265
0.0085 -0.0055 309.007404371
0.0085 -0.0045 309.069615657
0.0085 -0.0035 309.318944147
0.0085 -0.0025 309.560244752
0.0085 -0.0015 309.623960961
0.0085 -0.0005 309.82199073
0.0085 0.0005 309.966127683
0.0085 0.0015 309.990789802
0.0085 0.0025 310.027360753
0.0085 0.0035 310.028094505
0.0085 0.0045 309.941567075
0.0085 0.0055 309.772039503
0.0085 0.0065 309.626182406
0.0085 0.0075 309.394980154
0.0085 0.0085 309.056837039
0.0085 0.0095 308.820972651
0.0085 0.0105 308.471839078
0.0085 0.0115 308.030751737
0.0085 0.0125 307.785318811
0.0085 0.0135 307.396669139
0.0085 0.0145 306.952609744
0.0085 0.0155 306.805719203
0.0085 0.0165 306.527778117
0.0085 0.0175 306.244428818
0.0085 0.0185 306.304386008
0.0085 0.0195 306.227791787
0.0085 0.0205 306.360953614
0.0085 0.0215 306.92984568
0.0085 0.0225 307.472997151
0.0085 0.0235 308.074685108
0.0085 0.0245 308.68921655
0.0085 0.0255 309.3661726
0.0085 0.0265 310.097453071
0.0085 0.0275 310.487054776
0.0085 0.0285 310.802261782
0.0085 0.0295 311.110704991
0.0085 0.0305 311.920805748
0.0085 0.0315 312.840957934
0.0095 -0.0315 293.582859196
0.0095 -0.0305 293.525962998
0.0095 -0.0295 293.466061228
0.0095 -0.0285 293.370406821
0.0095 -0.0275 293.288374853
0.0095 -0.0265 293.304266586
0.0095 -0.0255 293.317730216
0.0095 -0.0245 293.588794795
0.0095 -0.0235 294.26502989
0.0095 -0.0225 295.640408822
0.0095 -0.0215 298.672121807
0.0095 -0.0205 301.792762242
0.0095 -0.0195 305.235335078
0.0095 -0.0185 307.608375919
0.0095 -0.0175 307.786047657
0.0095 -0.0165 307.963719396
0.0095 -0.0155 308.044319522
0.0095 -0.0145 308.08312188
0.0095 -0.0135 308.121924238
0.0095 -0.0125 308.229862081
0.0095 -0.0115 308.330856461
0.0095 -0.0105 308.463587229
0.0095 -0.0095 308.6564939
0.0095 -0.0085 308.849400571
0.0095 -0.0075 309.092276841
0.0095 -0.0065 309.357633364
0.0095 -0.0055 309.622989887
0.0095 -0.0045 309.921178524
0.0095 -0.0035 310.19632075
0.0095 -0.0025 310.471462975
0.0095 -0.0015 310.725163371
0.0095 -0.0005 310.924178667
0.0095 0.0005 311.123193963
0.0095 0.0015 311.21649411
0.0095 0.0025 311.255740687
0.0095 0.0035 311.294987265
0.0095 0.0045 311.151523149
0.0095 0.0055 310.98671275
0.0095 0.0065 310.801045029
0.0095 0.0075 310.466242973
0.0095 0.0085 310.134444536
0.0095 0.0095 309.744450277
0.0095 0.0105 309.311239105
0.0095 0.0115 308.878027933
0.0095 0.0125 308.375114602
0.0095 0.0135 307.943363745
0.0095 0.0145 307.511612887
0.0095 0.0155 307.023176138
0.0095 0.0165 306.745933954
0.0095 0.0175 306.468691771
0.0095 0.0185 306.17828396
0.0095 0.0195 306.101845277
0.0095 0.0205 306.014773433
0.0095 0.0215 306.335803585
0.0095 0.0225 306.884437356
0.0095 0.0235 307.42759502
0.0095 0.0245 308.028243166
0.0095 0.0255 308.706324529
0.0095 0.0265 309.463478286
0.0095 0.0275 310.29342465
0.0095 0.0285 310.958593037
0.0095 0.0295 311.267036246
0.0095 0.0305 312.076469936
0.0095 0.0315 312.95454359
0.0105 -0.0315 293.569788042
0.0105 -0.0305 293.511139659
0.0105 -0.0295 293.446886488
0.0105 -0.0285 293.372207528
0.0105 -0.0275 293.290175559
0.0105 -0.0265 293.300935992
0.0105 -0.0255 293.34683232
0.0105 -0.0245 293.890979962
0.0105 -0.0235 294.723875405
0.0105 -0.0225 295.642033592
0.0105 -0.0215 298.889576575
0.0105 -0.0205 303.429471689
0.0105 -0.0195 306.796259692
0.0105 -0.0185 307.645444853
0.0105 -0.0175 307.935538137
0.0105 -0.0165 308.095248654
0.0105 -0.0155 308.213679559
0.0105 -0.0145 308.252481917
0.0105 -0.0135 308.406742873
0.0105 -0.0125 308.600947788
0.0105 -0.0115 308.701942168
0.0105 -0.0105 309.034905614
0.0105 -0.0095 309.339036323
0.0105 -0.0085 309.531942994
0.0105 -0.0075 310.059048975
0.0105 -0.0065 310.430576469
0.0105 -0.0055 310.723620414
0.0105 -0.0045 311.317233903
0.0105 -0.0035 311.661307744
0.0105 -0.0025 311.989871146
0.0105 -0.0015 312.4881616
0.0105 -0.0005 312.706438786
0.0105 0.0005 312.928006881
0.0105 0.0015 313.167037927
0.0105 0.0025 313.206284505
0.0105 0.0035 313.182788986
0.0105 0.0045 313.087266895
0.0105 0.0055 312.922456496
0.0105 0.0065 312.593778825
0.0105 0.0075 312.213668856
0.0105 0.0085 311.881870418
0.0105 0.0095 311.284033379
0.0105 0.0105 310.724760982
0.0105 0.0115 310.29154981
0.0105 0.0125 309.528837761
0.0105 0.0135 308.926732012
0.0105 0.0145 308.467159968
0.0105 0.0155 307.699713065
0.0105 0.0165 307.212316508
0.0105 0.0175 306.873284325
0.0105 0.0185 306.397476624
0.0105 0.0195 306.165668437
0.0105 0.0205 306.011191975
0.0105 0.0215 305.811854601
0.0105 0.0225 306.349790005
0.0105 0.0235 306.890786175
0.0105 0.0245 307.424510722
0.0105 0.0255 308.165333382
0.0105 0.0265 309.015313083
0.0105 0.0275 309.838173837
0.0105 0.0285 310.508517134
0.0105 0.0295 311.256137295
0.0105 0.0305 312.156519049
0.0105 0.0315 313.017403489
0.0115 -0.0315 293.554769595
0.0115 -0.0305 293.489531003
0.0115 -0.0295 293.423961564
0.0115 -0.0285 293.356698823
0.0115 -0.0275 293.289436082
0.0115 -0.0265 293.364667207
0.0115 -0.0255 293.477567586
0.0115 -0.0245 293.982643718
0.0115 -0.0235 294.948710782
0.0115 -0.0225 295.914777846
0.0115 -0.0215 299.933048655
0.0115 -0.0205 304.386468525
0.0115 -0.0195 306.744560608
0.0115 -0.0185 307.559413943
0.0115 -0.0175 308.084530395
0.0115 -0.0165 308.213483558
0.0115 -0.0155 308.34243672
0.0115 -0.0145 308.458898362
0.0115 -0.0135 308.698023246
0.0115 -0.0125 308.93714813
0.0115 -0.0115 309.18521862
0.0115 -0.0105 309.58975211
0.0115 -0.0095 309.994285599
0.0115 -0.0085 310.408476449
0.0115 -0.0075 310.958261368
0.0115 -0.0065 311.503519575
0.0115 -0.0055 311.993942658
0.0115 -0.0045 312.587556147
0.0115 -0.0035 313.126294738
0.0115 -0.0025 313.589042213
0.0115 -0.0015 314.087332666
0.0115 -0.0005 314.488698905
0.0115 0.0005 314.744810404
0.0115 0.0015 315.001354676
0.0115 0.0025 315.140598618
0.0115 0.0035 315.063844743
0.0115 0.0045 314.987090868
0.0115 0.0055 314.790528298
0.0115 0.0065 314.38651262
0.0115 0.0075 313.982496943
0.0115 0.0085 313.493579453
0.0115 0.0095 312.838497433
0.0115 0.0105 312.183415413
0.0115 0.0115 311.517411746
0.0115 0.0125 310.738100838
0.0115 0.0135 309.95878993
0.0115 0.0145 309.263075972
0.0115 0.0155 308.495629069
0.0115 0.0165 307.728182166
0.0115 0.0175 307.238954826
0.0115 0.0185 306.780736479
0.0115 0.0195 306.279989673
0.0115 0.0205 306.037475768
0.0115 0.0215 305.81612623
0.0115 0.0225 305.798163477
0.0115 0.0235 306.250141004
0.0115 0.0245 306.702118531
0.0115 0.0255 307.485624915
0.0115 0.0265 308.487846195
0.0115 0.0275 309.382923024
0.0115 0.0285 310.295480205
0.0115 0.0295 311.229052312
0.0115 0.0305 312.148296845
0.0115 0.0315 313.064769839
0.0125 -0.0315 293.539499775
0.0125 -0.0305 293.466575894
0.0125 -0.0295 293.401036641
0.0125 -0.0285 293.345643549
0.0125 -0.0275 293.315716234
0.0125 -0.0265 293.445435968
0.0125 -0.0255 293.608302851
0.0125 -0.0245 294.074307474
0.0125 -0.0235 295.156001534
0.0125 -0.0225 296.314815433
0.0125 -0.0215 300.462194112
0.0125 -0.0205 304.898335394
0.0125 -0.0195 306.87380092
0.0125 -0.0185 307.657156985
0.0125 -0.0175 308.264982705
0.0125 -0.0165 308.413585385
0.0125 -0.0155 308.55021854
0.0125 -0.0145 308.869280091
0.0125 -0.0135 309.107837675
0.0125 -0.0125 309.34639526
0.0125 -0.0115 309.939613499
0.0125 -0.0105 310.349092467
0.0125 -0.0095 310.820744675
0.0125 -0.0085 311.604879494
0.0125 -0.0075 312.154382731
0.0125 -0.0065 312.824227005
0.0125 -0.0055 313.646968366
0.0125 -0.0045 314.240400987
0.0125 -0.0035 314.95951391
0.0125 -0.0025 315.625022082
0.0125 -0.0015 316.123331207
0.0125 -0.0005 316.662643532
0.0125 0.0005 317.010667263
0.0125 0.0015 317.268418037
0.0125 0.0025 317.444343237
0.0125 0.0035 317.404818025
0.0125 0.0045 317.33113279
0.0125 0.0055 317.060480133
0.0125 0.0065 316.664683361
0.0125 0.0075 316.259939022
0.0125 0.0085 315.547461305
0.0125 0.0095 314.897798136
0.0125 0.0105 314.190882252
0.0125 0.0115 313.188959586
0.0125 0.0125 312.414926085
0.0125 0.0135 311.542562682
0.0125 0.0145 310.453978132
0.0125 0.0155 309.714349039
0.0125 0.0165 308.830204551
0.0125 0.0175 307.799822161
0.0125 0.0185 307.341603814
0.0125 0.0195 306.709530007
0.0125 0.0205 306.264069534
0.0125 0.0215 306.002792497
0.0125 0.0225 305.702753663
0.0125 0.0235 305.693398881
0.0125 0.0245 305.979726341
0.0125 0.0255 306.785337437
0.0125 0.0265 307.675055203
0.0125 0.0275 308.651697832
0.0125 0.0285 310.172596928
0.0125 0.0295 311.201967328
0.0125 0.0305 312.120951403
0.0125 0.0315 312.896140074
0.0135 -0.0315 293.530094153
0.0135 -0.0305 293.456822482
0.0135 -0.0295 293.397322576
0.0135 -0.0285 293.380104876
0.0135 -0.0275 293.350177561
0.0135 -0.0265 293.475914514
0.0135 -0.0255 293.663497222
0.0135 -0.0245 294.329169072
0.0135 -0.0235 295.568355902
0.0135 -0.0225 296.727169802
0.0135 -0.0215 301.040501341
0.0135 -0.0205 305.421750697
0.0135 -0.0195 307.066168301
0.0135 -0.0185 307.895650148
0.0135 -0.0175 308.45885226
0.0135 -0.0165 308.659298967
0.0135 -0.0155 308.892457428
0.0135 -0.0145 309.270133023
0.0135 -0.0135 309.5720685
0.0135 -0.0125 310.030179384
0.0135 -0.0115 310.6667021
0.0135 -0.0105 311.193021783
0.0135 -0.0095 311.931787332
0.0135 -0.0085 312.79536733
0.0135 -0.0075 313.461260944
0.0135 -0.0065 314.385051974
0.0135 -0.0055 315.362479882
0.0135 -0.0045 316.049275657
0.0135 -0.0035 316.927052041
0.0135 -0.0025 317.804828424
0.0135 -0.0015 318.33708529
0.0135 -0.0005 318.9045318
0.0135 0.0005 319.443544357
0.0135 0.0015 319.663911348
0.0135 0.0025 319.810899556
0.0135 0.0035 319.908534561
0.0135 0.0045 319.728041786
0.0135 0.0055 319.430579371
0.0135 0.0065 319.09848984
0.0135 0.0075 318.503316892
0.0135 0.0085 317.785724758
0.0135 0.0095 317.098472968
0.0135 0.0105 316.151450535
0.0135 0.0115 315.105064673
0.0135 0.0125 314.203143486
0.0135 0.0135 313.080136041
0.0135 0.0145 311.891017356
0.0135 0.0155 310.967295997
0.0135 0.0165 309.895734311
0.0135 0.0175 308.764874645
0.0135 0.0185 307.823052788
0.0135 0.0195 307.167450891
0.0135 0.0205 306.501801387
0.0135 0.0215 306.072513
0.0135 0.0225 305.751245989
0.0135 0.0235 305.741891207
0.0135 0.0245 305.685609971
0.0135 0.0255 305.853185758
0.0135 0.0265 306.670879698
0.0135 0.0275 307.661765059
0.0135 0.0285 309.182664154
0.0135 0.0295 310.625329748
0.0135 0.0305 311.854896643
0.0135 0.0315 312.614222111
0.0145 -0.0315 293.523631751
0.0145 -0.0305 293.45722094
0.0145 -0.0295 293.39835042
0.0145 -0.0285 293.388557808
0.0145 -0.0275 293.378765195
0.0145 -0.0265 293.557361534
0.0145 -0.0255 293.796320043
0.0145 -0.0245 294.459328429
0.0145 -0.0235 295.790205532
0.0145 -0.0225 297.207800214
0.0145 -0.0215 301.425435802
0.0145 -0.0205 305.656737569
0.0145 -0.0195 307.332802404
0.0145 -0.0185 308.13884514
0.0145 -0.0175 308.660171626
0.0145 -0.0165 308.927214484
0.0145 -0.0155 309.257024318
0.0145 -0.0145 309.648751639
0.0145 -0.0135 310.105304145
0.0145 -0.0125 310.756762471
0.0145 -0.0115 311.408220797
0.0145 -0.0105 312.215640621
0.0145 -0.0095 313.130626952
0.0145 -0.0085 313.994060773
0.0145 -0.0075 315.089544908
0.0145 -0.0065 316.067716091
0.0145 -0.0055 317.045887273
0.0145 -0.0045 318.13098754
0.0145 -0.0035 319.008155679
0.0145 -0.0025 319.885323817
0.0145 -0.0015 320.655930537
0.0145 -0.0005 321.223295775
0.0145 0.0005 321.790661013
0.0145 0.0015 322.086935842
0.0145 0.0025 322.234344721
0.0145 0.0035 322.366768953
0.0145 0.0045 322.167289845
0.0145 0.0055 321.871074798
0.0145 0.0065 321.525783263
0.0145 0.0075 320.864436042
0.0145 0.0085 320.149498604
0.0145 0.0095 319.331739618
0.0145 0.0105 318.293132147
0.0145 0.0115 317.247777581
0.0145 0.0125 316.034697623
0.0145 0.0135 314.820198815
0.0145 0.0145 313.612654226
0.0145 0.0155 312.263618499
0.0145 0.0165 311.074379218
0.0145 0.0175 309.988531711
0.0145 0.0185 308.704028595
0.0145 0.0195 307.834628872
0.0145 0.0205 307.1554387
0.0145 0.0215 306.444589598
0.0145 0.0225 305.795680756
0.0145 0.0235 305.656591131
0.0145 0.0245 305.517501507
0.0145 0.0255 305.685621015
0.0145 0.0265 306.006566384
0.0145 0.0275 306.64500291
0.0145 0.0285 308.018709863
0.0145 0.0295 309.392416815
0.0145 0.0305 310.739897337
0.0145 0.0315 312.083432983
0.0155 -0.0315 293.520728683
0.0155 -0.0305 293.458183646
0.0155 -0.0295 293.399378265
0.0155 -0.0285 293.399173207
0.0155 -0.0275 293.414887972
0.0155 -0.0265 293.638925949
0.0155 -0.0255 293.929142863
0.0155 -0.0245 294.589487786
0.0155 -0.0235 296.064235822
0.0155 -0.0225 297.658583403
0.0155 -0.0215 301.738776049
0.0155 -0.0205 305.891724441
0.0155 -0.0195 307.611256312
0.0155 -0.0185 308.378477198
0.0155 -0.0175 308.944711109
0.0155 -0.0165 309.274006005
0.0155 -0.0155 309.59555312
0.0155 -0.0145 310.11046648
0.0155 -0.0135 310.760358054
0.0155 -0.0125 311.603881854
0.0155 -0.0115 312.25534018
0.0155 -0.0105 313.339671725
0.0155 -0.0095 314.472159752
0.0155 -0.0085 315.358139248
0.0155 -0.0075 316.730848996
0.0155 -0.0065 317.946907491
0.0155 -0.0055 318.992915448
0.0155 -0.0045 320.235821089
0.0155 -0.0035 321.271817295
0.0155 -0.0025 322.145667754
0.0155 -0.0015 323.014548286
0.0155 -0.0005 323.667524519
0.0155 0.0005 324.151243611
0.0155 0.0015 324.562845178
0.0155 0.0025 324.748944838
0.0155 0.0035 324.761125717
0.0155 0.0045 324.707176453
0.0155 0.0055 324.416882704
0.0155 0.0065 323.934025833
0.0155 0.0075 323.39011683
0.0155 0.0085 322.675179392
0.0155 0.0095 321.682459753
0.0155 0.0105 320.667444839
0.0155 0.0115 319.583104743
0.0155 0.0125 318.175260106
0.0155 0.0135 316.864653418
0.0155 0.0145 315.553485114
0.0155 0.0155 313.996969486
0.0155 0.0165 312.5732283
0.0155 0.0175 311.19092297
0.0155 0.0185 309.856356462
0.0155 0.0195 308.521789953
0.0155 0.0205 307.796804335
0.0155 0.0215 306.964718146
0.0155 0.0225 306.159462351
0.0155 0.0235 305.675867734
0.0155 0.0245 305.349393042
0.0155 0.0255 305.518056273
0.0155 0.0265 305.698144406
0.0155 0.0275 306.046344423
0.0155 0.0285 306.935493196
0.0155 0.0295 308.159503883
0.0155 0.0305 309.507431918
0.0155 0.0315 310.860470122
0.0165 -0.0315 293.515599921
0.0165 -0.0305 293.453054883
0.0165 -0.0295 293.413455946
0.0165 -0.0285 293.440877257
0.0165 -0.0275 293.456592022
0.0165 -0.0265 293.680931188
0.0165 -0.0255 293.992586055
0.0165 -0.0245 294.873325024
0.0165 -0.0235 296.510309804
0.0165 -0.0225 298.109366593
0.0165 -0.0215 302.189559238
0.0165 -0.0205 306.1810714
0.0165 -0.0195 307.823218479
0.0165 -0.0185 308.58320205
0.0165 -0.0175 309.167982283
0.0165 -0.0165 309.525547294
0.0165 -0.0155 310.07382336
0.0165 -0.0145 310.721344602
0.0165 -0.0135 311.409666394