% Model:              SIMBench260525.mph
% Version:            COMSOL 6.2.0.339
% Date:               May 27 2026, 17:49
% Dimension:          2
% Nodes:              4096
% Expressions:        1
% Description:        温度
% Length unit:        m
% x                       y                        T (K)
5.0E-4                    -0.0315                  366.74398064524337
5.0E-4                    -0.0305                  365.0231095284382
5.0E-4                    -0.0295                  363.29861864162723
5.0E-4                    -0.0285                  360.37908258831175
5.0E-4                    -0.0275                  357.6772960767028
5.0E-4                    -0.0265                  355.1265608217645
5.0E-4                    -0.0255                  353.42584937008974
5.0E-4                    -0.0245                  351.8571321931477
5.0E-4                    -0.0235                  350.5343000482005
5.0E-4                    -0.0225                  349.63328742008275
5.0E-4                    -0.0215                  348.71478912797994
5.0E-4                    -0.0205                  347.9157073514432
5.0E-4                    -0.0195                  347.2199686489365
5.0E-4                    -0.0185                  346.5231479311758
5.0E-4                    -0.0175                  345.8217786952305
5.0E-4                    -0.0165                  345.2765742221586
5.0E-4                    -0.0155                  344.7313697490868
5.0E-4                    -0.0145                  344.0371533275163
5.0E-4                    -0.0135                  343.6673688839671
5.0E-4                    -0.0125                  343.27608339563415
5.0E-4                    -0.0115                  342.6542274889838
5.0E-4                    -0.0105                  342.356886524219
5.0E-4                    -0.0095                  342.00857613097963
5.0E-4                    -0.0085                  341.59546006341975
5.0E-4                    -0.0075                  341.25746528214637
5.0E-4                    -0.0065                  340.9667599689018
5.0E-4                    -0.0055                  340.84810471088247
5.0E-4                    -0.0045                  340.75588470975356
5.0E-4                    -0.0035                  340.72488894593437
5.0E-4                    -0.0025                  340.7436247974638
5.0E-4                    -0.0015                  340.7624685403961
5.0E-4                    -5.0E-4                  340.8803828633757
5.0E-4                    5.0E-4                   340.9450140551774
5.0E-4                    0.0015                   341.0096452469791
5.0E-4                    0.0025                   341.131260430941
5.0E-4                    0.0035                   341.05025201206644
5.0E-4                    0.0045                   340.98187614257705
5.0E-4                    0.0055                   340.6775142859879
5.0E-4                    0.0065                   340.0069429569892
5.0E-4                    0.0075                   339.3958842171566
5.0E-4                    0.0085                   336.9974769765968
5.0E-4                    0.0095                   333.64045843891415
5.0E-4                    0.0105                   330.85343877799943
5.0E-4                    0.0115                   323.2378045353162
5.0E-4                    0.0125                   314.62384807914736
5.0E-4                    0.0135                   307.84765328449816
5.0E-4                    0.0145                   305.6119321873782
5.0E-4                    0.0155                   303.3762110902583
5.0E-4                    0.0165                   298.36605023205203
5.0E-4                    0.0175                   295.95601303687187
5.0E-4                    0.0185                   293.7143025816675
5.0E-4                    0.0195                   293.1589169899216
5.0E-4                    0.0205                   293.1302641328572
5.0E-4                    0.0215                   293.1316878555917
5.0E-4                    0.0225                   293.14230280054534
5.0E-4                    0.0235                   293.1501067967745
5.0E-4                    0.0245                   293.15487022912015
5.0E-4                    0.0255                   293.15472502226925
5.0E-4                    0.0265                   293.1547159864973
5.0E-4                    0.0275                   293.1551736853379
5.0E-4                    0.0285                   293.1553630671534
5.0E-4                    0.0295                   293.15850071873774
5.0E-4                    0.0305                   293.1643549894006
5.0E-4                    0.0315                   293.1702384873981
0.0015                    -0.0315                  366.2217393483675
0.0015                    -0.0305                  364.7148372653643
0.0015                    -0.0295                  362.41853868571854
0.0015                    -0.0285                  359.2070701005697
0.0015                    -0.0275                  356.3120162830112
0.0015                    -0.0265                  354.3085721621128
0.0015                    -0.0255                  352.4404269608798
0.0015                    -0.0245                  350.8632220499985
0.0015                    -0.0235                  349.9900715346554
0.0015                    -0.0225                  349.1278704991967
0.0015                    -0.0215                  348.2384065918986
0.0015                    -0.0205                  347.55310237280355
0.0015                    -0.0195                  346.86426978849084
0.0015                    -0.0185                  346.1588217520374
0.0015                    -0.0175                  345.43376312039743
0.0015                    -0.0165                  344.7958364911698
0.0015                    -0.0155                  344.09543337397486
0.0015                    -0.0145                  343.2298389429819
0.0015                    -0.0135                  342.6925495759261
0.0015                    -0.0125                  341.99180228155257
0.0015                    -0.0115                  341.1187050402206
0.0015                    -0.0105                  340.7283876727841
0.0015                    -0.0095                  340.23675004209395
0.0015                    -0.0085                  339.70760557954947
0.0015                    -0.0075                  339.3696107982761
0.0015                    -0.0065                  339.1521968319786
0.0015                    -0.0055                  338.9585866292633
0.0015                    -0.0045                  338.88490046445
0.0015                    -0.0035                  338.9006558819916
0.0015                    -0.0025                  338.9175409549201
0.0015                    -0.0015                  338.98949158975745
0.0015                    -5.0E-4                  339.1624054319601
0.0015                    5.0E-4                   339.2766706825494
0.0015                    0.0015                   339.4305589274134
0.0015                    0.0025                   339.6670274073864
0.0015                    0.0035                   339.67578437812375
0.0015                    0.0045                   339.68774612364984
0.0015                    0.0055                   339.7404852442279
0.0015                    0.0065                   339.14739816834975
0.0015                    0.0075                   338.6682431990058
0.0015                    0.0085                   338.01615365414204
0.0015                    0.0095                   334.7314252300694
0.0015                    0.0105                   332.63990718255934
0.0015                    0.0115                   328.93928160468806
0.0015                    0.0125                   320.9936045575121
0.0015                    0.0135                   315.13036986870543
0.0015                    0.0145                   310.8618391121695
0.0015                    0.0155                   306.5417211938701
0.0015                    0.0165                   299.6715675662124
0.0015                    0.0175                   295.8313565375505
0.0015                    0.0185                   294.3210531042397
0.0015                    0.0195                   293.11124328056064
0.0015                    0.0205                   293.08877159556005
0.0015                    0.0215                   293.1231551639952
0.0015                    0.0225                   293.14825186379977
0.0015                    0.0235                   293.1551218239986
0.0015                    0.0245                   293.16080064718267
0.0015                    0.0255                   293.1625421608366
0.0015                    0.0265                   293.1631142403538
0.0015                    0.0275                   293.1638953528965
0.0015                    0.0285                   293.1651341443028
0.0015                    0.0295                   293.17118205848425
0.0015                    0.0305                   293.1772342515267
0.0015                    0.0315                   293.2038819186474
0.0025                    -0.0315                  365.6994980514917
0.0025                    -0.0305                  363.95466651830384
0.0025                    -0.0295                  361.5485036991693
0.0025                    -0.0285                  358.3164368811376
0.0025                    -0.0275                  355.4849814656754
0.0025                    -0.0265                  353.5819843058275
0.0025                    -0.0255                  351.68759418302454
0.0025                    -0.0245                  350.50411690730107
0.0025                    -0.0235                  349.64371309117837
0.0025                    -0.0225                  348.78330927505556
0.0025                    -0.0215                  348.11855839177736
0.0025                    -0.0205                  347.4415194493158
0.0025                    -0.0195                  346.76448050685417
0.0025                    -0.0185                  345.9110264403919
0.0025                    -0.0175                  345.1862237249751
0.0025                    -0.0165                  344.3095290555953
0.0025                    -0.0155                  343.2915850281969
0.0025                    -0.0145                  342.42745735878486
0.0025                    -0.0135                  341.4041866585552
0.0025                    -0.0125                  340.53365801972234
0.0025                    -0.0115                  339.6631293808895
0.0025                    -0.0105                  338.87292260702475
0.0025                    -0.0095                  338.3425700672366
0.0025                    -0.0085                  337.8122175274484
0.0025                    -0.0075                  337.4408835335513
0.0025                    -0.0065                  337.22473808018935
0.0025                    -0.0055                  337.0085926268275
0.0025                    -0.0045                  336.95279980686104
0.0025                    -0.0035                  336.96950212780973
0.0025                    -0.0025                  336.98620444875843
0.0025                    -0.0015                  337.1376387190072
0.0025                    -5.0E-4                  337.31095739465707
0.0025                    5.0E-4                   337.4916441938868
0.0025                    0.0015                   337.7279617589454
0.0025                    0.0025                   337.9644044835304
0.0025                    0.0035                   338.1981107955704
0.0025                    0.0045                   338.24927599190494
0.0025                    0.0055                   338.3004411882396
0.0025                    0.0065                   338.25920464262555
0.0025                    0.0075                   337.80492106373197
0.0025                    0.0085                   337.35063748483833
0.0025                    0.0095                   336.1844277876059
0.0025                    0.0105                   334.08539494823265
0.0025                    0.0115                   331.9863621088595
0.0025                    0.0125                   327.49815965000334
0.0025                    0.0135                   321.60340646758567
0.0025                    0.0145                   315.49204977088493
0.0025                    0.0155                   308.35767190136295
0.0025                    0.0165                   301.4687166321536
0.0025                    0.0175                   295.967869095813
0.0025                    0.0185                   294.7402262770779
0.0025                    0.0195                   293.51258345834276
0.0025                    0.0205                   293.0804904708919
0.0025                    0.0215                   293.11487708713435
0.0025                    0.0225                   293.1492849382877
0.0025                    0.0235                   293.1605450942635
0.0025                    0.0245                   293.1662379523629
0.0025                    0.0255                   293.17060891632264
0.0025                    0.0265                   293.17136608054335
0.0025                    0.0275                   293.17212324476407
0.0025                    0.0285                   293.17697380510253
0.0025                    0.0295                   293.1827915211111
0.0025                    0.0305                   293.2041434067728
0.0025                    0.0315                   293.23752534989677
0.0035                    -0.0315                  364.89855003587786
0.0035                    -0.0305                  362.83458954167384
0.0035                    -0.0295                  360.7771070157261
0.0035                    -0.0285                  357.76473804548056
0.0035                    -0.0275                  355.27862164986374
0.0035                    -0.0265                  353.0546009672799
0.0035                    -0.0255                  351.4926909379482
0.0035                    -0.0245                  351.03884449754764
0.0035                    -0.0235                  350.2710262136045
0.0035                    -0.0225                  349.58007510852457
0.0035                    -0.0215                  349.21294581856125
0.0035                    -0.0205                  348.55814458128765
0.0035                    -0.0195                  347.5262473016546
0.0035                    -0.0185                  346.2472562837661
0.0035                    -0.0175                  345.5224535683493
0.0035                    -0.0165                  343.72229292544654
0.0035                    -0.0155                  341.89780138903296
0.0035                    -0.0145                  341.033673719621
0.0035                    -0.0135                  339.49031797619375
0.0035                    -0.0125                  338.21847046438677
0.0035                    -0.0115                  337.3475175874803
0.0035                    -0.0105                  336.46929634059524
0.0035                    -0.0095                  335.81461399190925
0.0035                    -0.0085                  335.31665254800913
0.0035                    -0.0075                  334.93434992646826
0.0035                    -0.0065                  334.68771987811607
0.0035                    -0.0055                  334.5186593948379
0.0035                    -0.0045                  334.4250622966599
0.0035                    -0.0035                  334.4408286296604
0.0035                    -0.0025                  334.50238218354247
0.0035                    -0.0015                  334.6128519911004
0.0035                    -5.0E-4                  334.78617066675025
0.0035                    5.0E-4                   335.00360724687357
0.0035                    0.0015                   335.238632888134
0.0035                    0.0025                   335.47507561271897
0.0035                    0.0035                   335.80641312871495
0.0035                    0.0045                   335.9983774834415
0.0035                    0.0055                   336.0729515848793
0.0035                    0.0065                   336.4228244513587
0.0035                    0.0075                   336.2173590858355
0.0035                    0.0085                   335.8419726137579
0.0035                    0.0095                   335.68404497754693
0.0035                    0.0105                   333.842183382817
0.0035                    0.0115                   331.9036882160982
0.0035                    0.0125                   329.9077101347948
0.0035                    0.0135                   324.01295695237707
0.0035                    0.0145                   316.2356678672103
0.0035                    0.0155                   308.1428776890821
0.0035                    0.0165                   301.2539224198728
0.0035                    0.0175                   296.97600675837293
0.0035                    0.0185                   294.4667223718367
0.0035                    0.0195                   293.51424317308727
0.0035                    0.0205                   293.10384879382775
0.0035                    0.0215                   293.10750029788744
0.0035                    0.0225                   293.1421122199413
0.0035                    0.0235                   293.16871427531925
0.0035                    0.0245                   293.17440713341864
0.0035                    0.0255                   293.17750689610494
0.0035                    0.0265                   293.17926636480405
0.0035                    0.0275                   293.1819799458898
0.0035                    0.0285                   293.18773344156807
0.0035                    0.0295                   293.19352829456335
0.0035                    0.0305                   293.221533876856
0.0035                    0.0315                   293.2596820880253
0.0045                    -0.0315                  364.54799891366326
0.0045                    -0.0305                  362.28077682313005
0.0045                    -0.0295                  360.075112275769
0.0045                    -0.0285                  357.56922531109257
0.0045                    -0.0275                  355.07591918723904
0.0045                    -0.0265                  352.5861454384353
0.0045                    -0.0255                  351.8727434188869
0.0045                    -0.0245                  351.41889697848626
0.0045                    -0.0235                  350.8983393360305
0.0045                    -0.0225                  350.50700636031945
0.0045                    -0.0215                  350.1398770703561
0.0045                    -0.0205                  349.5801923625105
0.0045                    -0.0195                  348.23461590979014
0.0045                    -0.0185                  346.8890394570699
0.0045                    -0.0175                  345.35019115714437
0.0045                    -0.0165                  343.1350567952977
0.0045                    -0.0155                  340.91992243345106
0.0045                    -0.0145                  339.2494376544575
0.0045                    -0.0135                  337.625093492823
0.0045                    -0.0125                  336.00074933118856
0.0045                    -0.0115                  335.0275993524027
0.0045                    -0.0105                  334.1493781055177
0.0045                    -0.0095                  333.28665791658176
0.0045                    -0.0085                  332.87916424844974
0.0045                    -0.0075                  332.4968616269089
0.0045                    -0.0065                  332.1507016760428
0.0045                    -0.0055                  332.0560888854843
0.0045                    -0.0045                  331.96249178730625
0.0045                    -0.0035                  331.9249397994734
0.0045                    -0.0025                  332.0228270659897
0.0045                    -0.0015                  332.120714332506
0.0045                    -5.0E-4                  332.28128032628047
0.0045                    5.0E-4                   332.5155702998603
0.0045                    0.0015                   332.7498602734402
0.0045                    0.0025                   333.03853657869206
0.0045                    0.0035                   333.38069399560726
0.0045                    0.0045                   333.7228514125224
0.0045                    0.0055                   334.0017874723052
0.0045                    0.0065                   334.3516603387846
0.0045                    0.0075                   334.6297971079389
0.0045                    0.0085                   334.43311128683985
0.0045                    0.0095                   334.2751836506289
0.0045                    0.0105                   333.6253377363316
0.0045                    0.0115                   331.8708028997963
0.0045                    0.0125                   330.11626806326103
0.0045                    0.0135                   325.54811076618114
0.0045                    0.0145                   316.97928596353563
0.0045                    0.0155                   308.41046116089
0.0045                    0.0165                   302.6548042909051
0.0045                    0.0175                   298.3833644468223
0.0045                    0.0185                   294.19321846659545
0.0045                    0.0195                   293.7460296877412
0.0045                    0.0205                   293.33563530848164
0.0045                    0.0215                   293.10022408915313
0.0045                    0.0225                   293.1349395015949
0.0045                    0.0235                   293.1696549140368
0.0045                    0.0245                   293.1810377021055
0.0045                    0.0255                   293.18411497152977
0.0045                    0.0265                   293.18716664906486
0.0045                    0.0275                   293.1927621360909
0.0045                    0.0285                   293.19847705027104
0.0045                    0.0295                   293.20413907147463
0.0045                    0.0305                   293.24495404122524
0.0045                    0.0315                   293.286452855053
0.0055                    -0.0315                  364.1974477914486
0.0055                    -0.0305                  362.2386037257581
0.0055                    -0.0295                  360.26665469556076
0.0055                    -0.0285                  357.5030414631734
0.0055                    -0.0275                  354.99896995739374
0.0055                    -0.0265                  353.4034672207466
0.0055                    -0.0255                  352.85373846213156
0.0055                    -0.0245                  352.36723878652305
0.0055                    -0.0235                  351.941061719098
0.0055                    -0.0225                  351.57358836970616
0.0055                    -0.0215                  351.208376139198
0.0055                    -0.0205                  348.8690437029291
0.0055                    -0.0195                  347.0215794018235
0.0055                    -0.0185                  345.6710541914627
0.0055                    -0.0175                  342.51306327079595
0.0055                    -0.0165                  340.2088565311145
0.0055                    -0.0155                  338.0861416724279
0.0055                    -0.0145                  336.49143160566234
0.0055                    -0.0135                  334.87407409259754
0.0055                    -0.0125                  333.55763450265636
0.0055                    -0.0115                  332.8941853652585
0.0055                    -0.0105                  332.0150090181571
0.0055                    -0.0095                  331.4516362326103
0.0055                    -0.0085                  331.1851767607444
0.0055                    -0.0075                  330.799805586803
0.0055                    -0.0065                  330.6417376672402
0.0055                    -0.0055                  330.5785811058786
0.0055                    -0.0045                  330.48165307192426
0.0055                    -0.0035                  330.51059128941114
0.0055                    -0.0025                  330.6002254890461
0.0055                    -0.0015                  330.6955994189206
0.0055                    -5.0E-4                  330.80540745845053
0.0055                    5.0E-4                   331.03509970970384
0.0055                    0.0015                   331.26072968177095
0.0055                    0.0025                   331.44194981460987
0.0055                    0.0035                   331.7862702959352
0.0055                    0.0045                   332.08897445669675
0.0055                    0.0055                   332.33430576197355
0.0055                    0.0065                   332.68648550545475
0.0055                    0.0075                   332.9739620758469
0.0055                    0.0085                   333.00690872856694
0.0055                    0.0095                   332.8487912988643
0.0055                    0.0105                   332.63936963645415
0.0055                    0.0115                   331.3841025944512
0.0055                    0.0125                   329.62182123692065
0.0055                    0.0135                   325.7640149011655
0.0055                    0.0145                   317.74309652633895
0.0055                    0.0155                   309.35098992175153
0.0055                    0.0165                   302.04271255567244
0.0055                    0.0175                   297.7557262048831
0.0055                    0.0185                   294.8351098014467
0.0055                    0.0195                   293.66384810872086
0.0055                    0.0205                   293.2552460093739
0.0055                    0.0215                   293.1212979350494
0.0055                    0.0225                   293.136689540208
0.0055                    0.0235                   293.1690120793271
0.0055                    0.0245                   293.1895710549343
0.0055                    0.0255                   293.19273524110116
0.0055                    0.0265                   293.1957624141819
0.0055                    0.0275                   293.19978411310206
0.0055                    0.0285                   293.20544613430553
0.0055                    0.0295                   293.21853199757555
0.0055                    0.0305                   293.26413486039087
0.0055                    0.0315                   293.3132236220807
0.0065                    -0.0315                  364.3783359878579
0.0065                    -0.0305                  362.462260005146
0.0065                    -0.0295                  360.4247863268053
0.0065                    -0.0285                  357.66117309441796
0.0065                    -0.0275                  355.0786686648129
0.0065                    -0.0265                  354.4880616285355
0.0065                    -0.0255                  353.8974545922581
0.0065                    -0.0245                  353.40800201580043
0.0065                    -0.0235                  353.0379589922709
0.0065                    -0.0225                  352.66791596874145
0.0065                    -0.0215                  351.4072299672524
0.0065                    -0.0205                  348.3721197677455
0.0065                    -0.0195                  345.4954013308392
0.0065                    -0.0185                  343.0678234861956
0.0065                    -0.0175                  339.8261761415514
0.0065                    -0.0165                  336.89642630549884
0.0065                    -0.0155                  335.15476713153896
0.0065                    -0.0145                  333.56244427447473
0.0065                    -0.0135                  331.9576392620422
0.0065                    -0.0125                  331.2849053449887
0.0065                    -0.0115                  330.7032502172516
0.0065                    -0.0105                  329.963442771275
0.0065                    -0.0095                  329.79322818402636
0.0065                    -0.0085                  329.62301359677764
0.0065                    -0.0075                  329.3508767087113
0.0065                    -0.0065                  329.3425379461553
0.0065                    -0.0055                  329.3324172616178
0.0065                    -0.0045                  329.29678085401866
0.0065                    -0.0035                  329.36445836097545
0.0065                    -0.0025                  329.43748909125753
0.0065                    -0.0015                  329.54117354956696
0.0065                    -5.0E-4                  329.65205267271915
0.0065                    5.0E-4                   329.80801783671575
0.0065                    0.0015                   329.98584990732064
0.0065                    0.0025                   330.14033075724194
0.0065                    0.0035                   330.39731333779304
0.0065                    0.0045                   330.61111172181734
0.0065                    0.0055                   330.80758490533685
0.0065                    0.0065                   331.10526283687864
0.0065                    0.0075                   331.3197581998408
0.0065                    0.0085                   331.534253562803
0.0065                    0.0095                   331.3977113118351
0.0065                    0.0105                   331.16409846645155