% Model:              SIMBench260525.mph
% Version:            COMSOL 6.2.0.339
% Date:               May 27 2026, 17:43
% Dimension:          2
% Nodes:              4096
% Expressions:        1
% Description:        温度
% Length unit:        m
% x                       y                        T (K)
5.0E-4                    -0.0315                  310.2220208596604
5.0E-4                    -0.0305                  308.7314448590081
5.0E-4                    -0.0295                  307.2408492802277
5.0E-4                    -0.0285                  305.29577004782635
5.0E-4                    -0.0275                  303.67426683174915
5.0E-4                    -0.0265                  302.2912015652729
5.0E-4                    -0.0255                  301.5888319675679
5.0E-4                    -0.0245                  300.7821218778719
5.0E-4                    -0.0235                  300.2438923766375
5.0E-4                    -0.0225                  299.7891374946113
5.0E-4                    -0.0215                  299.2643811621953
5.0E-4                    -0.0205                  299.05547653333133
5.0E-4                    -0.0195                  298.7396662284076
5.0E-4                    -0.0185                  298.42385592348387
5.0E-4                    -0.0175                  298.38453919544054
5.0E-4                    -0.0165                  298.2738483167087
5.0E-4                    -0.0155                  298.1636916627137
5.0E-4                    -0.0145                  298.045847412027
5.0E-4                    -0.0135                  297.776793328886
5.0E-4                    -0.0125                  297.50292118447476
5.0E-4                    -0.0115                  296.98274299371997
5.0E-4                    -0.0105                  296.3125493060032
5.0E-4                    -0.0095                  295.6979620148813
5.0E-4                    -0.0085                  295.22853269803613
5.0E-4                    -0.0075                  294.77459365311455
5.0E-4                    -0.0065                  294.25423502337406
5.0E-4                    -0.0055                  294.3157717737016
5.0E-4                    -0.0045                  294.3773085240291
5.0E-4                    -0.0035                  293.84072380801285
5.0E-4                    -0.0025                  293.5228526311761
5.0E-4                    -0.0015                  293.2231598684183
5.0E-4                    -5.0E-4                  293.14227509996914
5.0E-4                    5.0E-4                   293.1410471435926
5.0E-4                    0.0015                   293.1742272203998
5.0E-4                    0.0025                   293.31001969590534
5.0E-4                    0.0035                   293.45461543508424
5.0E-4                    0.0045                   293.7133698006292
5.0E-4                    0.0055                   293.6382109127253
5.0E-4                    0.0065                   293.5630520248214
5.0E-4                    0.0075                   293.88233797773603
5.0E-4                    0.0085                   294.067337935189
5.0E-4                    0.0095                   294.3134420130557
5.0E-4                    0.0105                   294.86470386593965
5.0E-4                    0.0115                   295.45741872440004
5.0E-4                    0.0125                   295.9579449487488
5.0E-4                    0.0135                   296.3200624027696
5.0E-4                    0.0145                   296.68154188163834
5.0E-4                    0.0155                   296.90057775945934
5.0E-4                    0.0165                   297.04014877940347
5.0E-4                    0.0175                   297.17971979934754
5.0E-4                    0.0185                   297.2386942412742
5.0E-4                    0.0195                   297.3946498746676
5.0E-4                    0.0205                   297.5479161971852
5.0E-4                    0.0215                   297.7006163997239
5.0E-4                    0.0225                   298.0836224518419
5.0E-4                    0.0235                   298.3950333714579
5.0E-4                    0.0245                   298.7222158860113
5.0E-4                    0.0255                   299.1926939101725
5.0E-4                    0.0265                   299.5603959836309
5.0E-4                    0.0275                   300.26235957932505
5.0E-4                    0.0285                   301.0526026971522
5.0E-4                    0.0295                   301.88468335942434
5.0E-4                    0.0305                   302.9404021205071
5.0E-4                    0.0315                   303.9961208815898
0.0015                    -0.0315                  309.430923552647
0.0015                    -0.0305                  307.9426437518898
0.0015                    -0.0295                  306.16428081355446
0.0015                    -0.0285                  303.962110405806
0.0015                    -0.0275                  302.15982784398864
0.0015                    -0.0265                  301.46982088276025
0.0015                    -0.0255                  300.9229084882677
0.0015                    -0.0245                  300.154367051833
0.0015                    -0.0235                  299.98705122224015
0.0015                    -0.0225                  299.7437873415579
0.0015                    -0.0215                  299.3373260151742
0.0015                    -0.0205                  299.3318105578693
0.0015                    -0.0195                  299.20065186596287
0.0015                    -0.0185                  299.0474593026773
0.0015                    -0.0175                  299.1212375607808
0.0015                    -0.0165                  299.082701681833
0.0015                    -0.0155                  299.0304964540918
0.0015                    -0.0145                  299.01461053666065
0.0015                    -0.0135                  298.7941168857467
0.0015                    -0.0125                  298.50590898288
0.0015                    -0.0115                  298.2102335010483
0.0015                    -0.0105                  297.5419018379245
0.0015                    -0.0095                  297.009172454534
0.0015                    -0.0085                  296.4930045261481
0.0015                    -0.0075                  296.0137821861972
0.0015                    -0.0065                  295.4415508787268
0.0015                    -0.0055                  295.13811895502624
0.0015                    -0.0045                  294.82588885593054
0.0015                    -0.0035                  294.0126650555506
0.0015                    -0.0025                  293.5283648069775
0.0015                    -0.0015                  293.3119346827014
0.0015                    -5.0E-4                  293.1347809368365
0.0015                    5.0E-4                   293.1316964741048
0.0015                    0.0015                   293.2059769344832
0.0015                    0.0025                   293.30072445637506
0.0015                    0.0035                   293.539622882447
0.0015                    0.0045                   293.95555075224115
0.0015                    0.0055                   294.07698755300993
0.0015                    0.0065                   294.2920830570397
0.0015                    0.0075                   294.7016796773956
0.0015                    0.0085                   294.93078187361107
0.0015                    0.0095                   295.35977920009435
0.0015                    0.0105                   295.84899301423764
0.0015                    0.0115                   296.4387206938521
0.0015                    0.0125                   296.8034532827382
0.0015                    0.0135                   297.1674973090667
0.0015                    0.0145                   297.47685314434216
0.0015                    0.0155                   297.6037103081128
0.0015                    0.0165                   297.73584155895975
0.0015                    0.0175                   297.81540973354385
0.0015                    0.0185                   297.814601660387
0.0015                    0.0195                   297.91276488473954
0.0015                    0.0205                   297.9572266379801
0.0015                    0.0215                   297.9408056921644
0.0015                    0.0225                   298.2719773922386
0.0015                    0.0235                   298.3771010275044
0.0015                    0.0245                   298.4982839365971
0.0015                    0.0255                   298.93730599779644
0.0015                    0.0265                   299.1770574476686
0.0015                    0.0275                   299.59236366550584
0.0015                    0.0285                   300.39033429005394
0.0015                    0.0295                   301.2324949514699
0.0015                    0.0305                   302.1947959096244
0.0015                    0.0315                   303.3195857535738
0.0025                    -0.0315                  308.63982624563357
0.0025                    -0.0305                  306.86743056548585
0.0025                    -0.0295                  304.86492409719045
0.0025                    -0.0285                  302.6963562962841
0.0025                    -0.0275                  301.4032246468506
0.0025                    -0.0265                  300.82719041295593
0.0025                    -0.0255                  300.2511561790611
0.0025                    -0.0245                  299.99798326813783
0.0025                    -0.0235                  299.82622449043356
0.0025                    -0.0225                  299.65446571272923
0.0025                    -0.0215                  299.6721184441378
0.0025                    -0.0205                  299.6661915597173
0.0025                    -0.0195                  299.6679074792421
0.0025                    -0.0185                  299.77885395643455
0.0025                    -0.0175                  299.85227091798185
0.0025                    -0.0165                  299.9108087949366
0.0025                    -0.0155                  299.8949298080878
0.0025                    -0.0145                  299.87905082123893
0.0025                    -0.0135                  299.7467305661678
0.0025                    -0.0125                  299.45441567049073
0.0025                    -0.0115                  299.1621007748137
0.0025                    -0.0105                  298.74009430821286
0.0025                    -0.0095                  298.2078874657302
0.0025                    -0.0085                  297.67568062324756
0.0025                    -0.0075                  297.1018201783877
0.0025                    -0.0065                  296.5296992184948
0.0025                    -0.0055                  295.9332883760118
0.0025                    -0.0045                  295.0700255424166
0.0025                    -0.0035                  294.2561357227099
0.0025                    -0.0025                  293.55727725736523
0.0025                    -0.0015                  293.3800159585882
0.0025                    -5.0E-4                  293.2027546598112
0.0025                    5.0E-4                   293.154052827026
0.0025                    0.0015                   293.2283919990537
0.0025                    0.0025                   293.3027311710814
0.0025                    0.0035                   293.65233664068984
0.0025                    0.0045                   294.0691345685702
0.0025                    0.0055                   294.5481260523451
0.0025                    0.0065                   294.9576077038593
0.0025                    0.0075                   295.36695280353865
0.0025                    0.0085                   295.8236215533028
0.0025                    0.0095                   296.31074177939695
0.0025                    0.0105                   296.7978620054911
0.0025                    0.0115                   297.2157227989342
0.0025                    0.0125                   297.5795615727279
0.0025                    0.0135                   297.9434003465216
0.0025                    0.0145                   298.1620458109672
0.0025                    0.0155                   298.28880688273597
0.0025                    0.0165                   298.4184047298456
0.0025                    0.0175                   298.4504418618586
0.0025                    0.0185                   298.4498206108424
0.0025                    0.0195                   298.4263411117351
0.0025                    0.0205                   298.4093903658611
0.0025                    0.0215                   298.3924396199871
0.0025                    0.0225                   298.3607337278181
0.0025                    0.0235                   298.4268931359357
0.0025                    0.0245                   298.49305254405334
0.0025                    0.0255                   298.6136009415808
0.0025                    0.0265                   298.8083940459603
0.0025                    0.0275                   299.0334703615785
0.0025                    0.0285                   299.75157296991256
0.0025                    0.0295                   300.59790123622247
0.0025                    0.0305                   301.5387562435086
0.0025                    0.0315                   302.64609366497706
0.0035                    -0.0315                  307.2559817023701
0.0035                    -0.0305                  305.3553383060639
0.0035                    -0.0295                  303.42394539345895
0.0035                    -0.0285                  301.70131009307187
0.0035                    -0.0275                  301.1643182296581
0.0035                    -0.0265                  300.6078517743812
0.0035                    -0.0255                  300.2019992768372
0.0035                    -0.0245                  300.19811126602616
0.0035                    -0.0235                  300.05426053508785
0.0035                    -0.0225                  300.0530057845296
0.0035                    -0.0215                  300.2659189829384
0.0035                    -0.0205                  300.2599920985178
0.0035                    -0.0195                  300.427733969075
0.0035                    -0.0185                  300.65576529743987
0.0035                    -0.0175                  300.7291822589872
0.0035                    -0.0165                  300.7491938226268
0.0035                    -0.0155                  300.7482974303513
0.0035                    -0.0145                  300.7219975495958
0.0035                    -0.0135                  300.4354952185934
0.0035                    -0.0125                  300.14539314140194
0.0035                    -0.0115                  299.81904958932193
0.0035                    -0.0105                  299.38133101810587
0.0035                    -0.0095                  298.8660837843534
0.0035                    -0.0085                  298.29801502968877
0.0035                    -0.0075                  297.6842644170382
0.0035                    -0.0065                  297.1121434571451
0.0035                    -0.0055                  296.1791961363559
0.0035                    -0.0045                  295.13596370968435
0.0035                    -0.0035                  294.32207388997773
0.0035                    -0.0025                  293.72209079883027
0.0035                    -0.0015                  293.35402796673924
0.0035                    -5.0E-4                  293.20298393368876
0.0035                    5.0E-4                   293.15592401005335
0.0035                    0.0015                   293.2082852256237
0.0035                    0.0025                   293.36191036148625
0.0035                    0.0035                   293.61719242282595
0.0035                    0.0045                   294.03399035070635
0.0035                    0.0055                   294.6983668314912
0.0035                    0.0065                   295.3035531792882
0.0035                    0.0075                   295.71389583087785
0.0035                    0.0085                   296.2795949368525
0.0035                    0.0095                   296.79725747570615
0.0035                    0.0105                   297.264560919279
0.0035                    0.0115                   297.66347895352214
0.0035                    0.0125                   298.0336125252
0.0035                    0.0135                   298.40120918715763
0.0035                    0.0145                   298.765721455278
0.0035                    0.0155                   298.8924825270468
0.0035                    0.0165                   299.06022372801135
0.0035                    0.0175                   299.2012814583915
0.0035                    0.0185                   299.2006602073751
0.0035                    0.0195                   299.11056281992114
0.0035                    0.0205                   299.05172170715934
0.0035                    0.0215                   299.0024967830333
0.0035                    0.0225                   298.78518821692853
0.0035                    0.0235                   298.7952730225453
0.0035                    0.0245                   298.7796874796529
0.0035                    0.0255                   298.7662167278455
0.0035                    0.0265                   298.96100983222505
0.0035                    0.0275                   299.0730452389291
0.0035                    0.0285                   299.3198156795984
0.0035                    0.0295                   299.9742814597687
0.0035                    0.0305                   300.9404413869821
0.0035                    0.0315                   302.0447725396397
0.0045                    -0.0315                  305.83515539648573
0.0045                    -0.0305                  303.9056063037123
0.0045                    -0.0295                  302.0237273062833
0.0045                    -0.0285                  301.46309130948
0.0045                    -0.0275                  300.9231710770878
0.0045                    -0.0265                  300.386179213674
0.0045                    -0.0255                  300.3289703649098
0.0045                    -0.0245                  300.3250823540988
0.0045                    -0.0235                  300.2973886522732
0.0045                    -0.0225                  300.5124360747602
0.0045                    -0.0215                  300.7274834972472
0.0045                    -0.0205                  300.91920625280557
0.0045                    -0.0195                  301.18756045890785
0.0045                    -0.0185                  301.45591466501014
0.0045                    -0.0175                  301.5774066638283
0.0045                    -0.0165                  301.587215075258
0.0045                    -0.0155                  301.59702348668776
0.0045                    -0.0145                  301.4095201863411
0.0045                    -0.0135                  301.12301785533873
0.0045                    -0.0125                  300.8363706123131
0.0045                    -0.0115                  300.42117162379554
0.0045                    -0.0105                  299.9834530525794
0.0045                    -0.0095                  299.52074849004003
0.0045                    -0.0085                  298.90568402324334
0.0045                    -0.0075                  298.2906195564467
0.0045                    -0.0065                  297.5492908655464
0.0045                    -0.0055                  296.4251038967001
0.0045                    -0.0045                  295.3009169278537
0.0045                    -0.0035                  294.5079477678241
0.0045                    -0.0025                  293.9283835451086
0.0045                    -0.0015                  293.348819322393
0.0045                    -5.0E-4                  293.2535314053125
0.0045                    5.0E-4                   293.2064714816771
0.0045                    0.0015                   293.2006446316068
0.0045                    0.0025                   293.4345753875005
0.0045                    0.0035                   293.6685061433942
0.0045                    0.0045                   294.11278574314775
0.0045                    0.0055                   294.8486076106374
0.0045                    0.0065                   295.584429478127
0.0045                    0.0075                   296.1536451321824
0.0045                    0.0085                   296.71934423815713
0.0045                    0.0095                   297.2837731720154
0.0045                    0.0105                   297.69782805680654
0.0045                    0.0115                   298.0967460910497
0.0045                    0.0125                   298.4881210763189
0.0045                    0.0135                   298.8604034783318
0.0045                    0.0145                   299.2326858803447
0.0045                    0.0155                   299.5138272941469
0.0045                    0.0165                   299.7020427261771
0.0045                    0.0175                   299.89025815820736
0.0045                    0.0185                   299.8989252877338
0.0045                    0.0195                   299.7993575275616
0.0045                    0.0205                   299.6997897673896
0.0045                    0.0215                   299.51848321541206
0.0045                    0.0225                   299.3011746493074
0.0045                    0.0235                   299.14014765403743
0.0045                    0.0245                   299.0359339269253
0.0045                    0.0255                   298.9341000425285
0.0045                    0.0265                   299.0139611669707
0.0045                    0.0275                   299.1102087653476
0.0045                    0.0285                   299.37006411413773
0.0045                    0.0295                   299.6489079798306
0.0045                    0.0305                   300.36113027801093
0.0045                    0.0315                   301.4844327064345
0.0055                    -0.0315                  304.41432909060137
0.0055                    -0.0305                  303.0851264238411
0.0055                    -0.0295                  301.85572619709177
0.0055                    -0.0285                  301.3222379794982
0.0055                    -0.0275                  300.78228170656917
0.0055                    -0.0265                  300.5404615053087
0.0055                    -0.0255                  300.5573008496763
0.0055                    -0.0245                  300.5483693077242
0.0055                    -0.0235                  300.7750489130403
0.0055                    -0.0225                  301.05689825000627
0.0055                    -0.0215                  301.2728745556265
0.0055                    -0.0205                  301.6085884854982
0.0055                    -0.0195                  301.8960938618379
0.0055                    -0.0185                  302.1522803879099
0.0055                    -0.0175                  302.20280004458124
0.0055                    -0.0165                  302.21354632668175
0.0055                    -0.0155                  302.1209659922079
0.0055                    -0.0145                  301.7671408407957
0.0055                    -0.0135                  301.4820614241053
0.0055                    -0.0125                  301.0482614812362
0.0055                    -0.0115                  300.51419964205553
0.0055                    -0.0105                  300.0773629686509
0.0055                    -0.0095                  299.45380737056917
0.0055                    -0.0085                  298.79927740496026
0.0055                    -0.0075                  298.18333743218807
0.0055                    -0.0065                  297.6379271386093
0.0055                    -0.0055                  296.59818234700555
0.0055                    -0.0045                  295.4833212371903
0.0055                    -0.0035                  294.4890746875772
0.0055                    -0.0025                  293.908855933008
0.0055                    -0.0015                  293.44383358263855
0.0055                    -5.0E-4                  293.2501121843437
0.0055                    5.0E-4                   293.20305109594915
0.0055                    0.0015                   293.2225820256315
0.0055                    0.0025                   293.3939781570734
0.0055                    0.0035                   293.62833186673873
0.0055                    0.0045                   294.09474845416776
0.0055                    0.0055                   294.8159953323034
0.0055                    0.0065                   295.51145885527177
0.0055                    0.0075                   296.04895461017645
0.0055                    0.0085                   296.613388416643
0.0055                    0.0095                   297.1292700970704
0.0055                    0.0105                   297.5576547855877
0.0055                    0.0115                   297.9536697446274
0.0055                    0.0125                   298.4870343333348
0.0055                    0.0135                   298.94195747393917
0.0055                    0.0145                   299.3117189552708
0.0055                    0.0155                   299.8427853908495
0.0055                    0.0165                   300.0819472682311
0.0055                    0.0175                   300.27484973823823
0.0055                    0.0185                   300.46990347530436
0.0055                    0.0195                   300.37030144193045
0.0055                    0.0205                   300.25480723028
0.0055                    0.0215                   300.0863737526484
0.0055                    0.0225                   299.86894706220664
0.0055                    0.0235                   299.5412404670248
0.0055                    0.0245                   299.3601890026301
0.0055                    0.0255                   299.2634791214458
0.0055                    0.0265                   299.17348666520195
0.0055                    0.0275                   299.147372291766
0.0055                    0.0285                   299.39104018830693
0.0055                    0.0295                   299.6179867084452
0.0055                    0.0305                   300.1858743645096
0.0055                    0.0315                   300.93505155018926
0.0065                    -0.0315                  304.1527046971474
0.0065                    -0.0305                  302.87375935966276
0.0065                    -0.0295                  301.70897250310065
0.0065                    -0.0285                  301.17573390745326
0.0065                    -0.0275                  300.71659129272217
0.0065                    -0.0265                  300.7540733250807
0.0065                    -0.0255                  300.7915553574393
0.0065                    -0.0245                  300.8469512492453
0.0065                    -0.0235                  301.2292818348992
0.0065                    -0.0225                  301.6116124205531
0.0065                    -0.0215                  301.8925842155068
0.0065                    -0.0205                  302.25301065630913
0.0065                    -0.0195                  302.59686699585467
0.0065                    -0.0185                  302.721983280739
0.0065                    -0.0175                  302.7729761350359
0.0065                    -0.0165                  302.8071379459874
0.0065                    -0.0155                  302.476785255757
0.0065                    -0.0145                  302.1027049154841
0.0065                    -0.0135                  301.76092127936874
0.0065                    -0.0125                  301.1524879809475
0.0065                    -0.0115                  300.54405468252634
0.0065                    -0.0105                  300.00428871655373
0.0065                    -0.0095                  299.28198032752744
0.0065                    -0.0085                  298.5647777847315
0.0065                    -0.0075                  297.9874453440723
0.0065                    -0.0065                  297.45257895668976
0.0065                    -0.0055                  296.75871423668394
0.0065                    -0.0045                  295.6948935487543
0.0065                    -0.0035                  294.6554550939379
0.0065                    -0.0025                  293.85274403135236
0.0065                    -0.0015                  293.5666841269716
0.0065                    -5.0E-4                  293.28771982174186
0.0065                    5.0E-4                   293.2167020209107
0.0065                    0.0015                   293.2695296546484
0.0065                    0.0025                   293.33490228729136
0.0065                    0.0035                   293.70064456538057
0.0065                    0.0045                   294.1803989758075
0.0065                    0.0055                   294.7500704720174
0.0065                    0.0065                   295.3226944246244
0.0065                    0.0075                   295.85323345744143
0.0065                    0.0085                   296.4004934578977
0.0065                    0.0095                   296.85250874784293
0.0065                    0.0105                   297.3045240377881
0.0065                    0.0115                   297.7652112828352