% Model:              SIMBench260525.mph
% Version:            COMSOL 6.2.0.339
% Date:               May 27 2026, 17:39
% Dimension:          2
% Nodes:              4096
% Expressions:        1
% Description:        温度
% Length unit:        m
% x                       y                        T (K)
5.0E-4                    -0.0315                  316.0831573810977
5.0E-4                    -0.0305                  314.70856377805524
5.0E-4                    -0.0295                  313.3281430011407
5.0E-4                    -0.0285                  311.3035179769504
5.0E-4                    -0.0275                  309.4894214546619
5.0E-4                    -0.0265                  307.6753249323735
5.0E-4                    -0.0255                  306.65393167946877
5.0E-4                    -0.0245                  305.64119089271037
5.0E-4                    -0.0235                  304.6284501059519
5.0E-4                    -0.0225                  304.20231351735384
5.0E-4                    -0.0215                  303.65249195287663
5.0E-4                    -0.0205                  303.1026703883994
5.0E-4                    -0.0195                  302.8603985757553
5.0E-4                    -0.0185                  302.39849294739577
5.0E-4                    -0.0175                  301.9365873190361
5.0E-4                    -0.0165                  301.78312463309805
5.0E-4                    -0.0155                  301.47079545312056
5.0E-4                    -0.0145                  301.1584662731431
5.0E-4                    -0.0135                  301.08537792028505
5.0E-4                    -0.0125                  300.92673531210596
5.0E-4                    -0.0115                  300.76809270392687
5.0E-4                    -0.0105                  300.67691589672694
5.0E-4                    -0.0095                  300.4767548545866
5.0E-4                    -0.0085                  300.2765938124463
5.0E-4                    -0.0075                  299.97652316997613
5.0E-4                    -0.0065                  299.435883076604
5.0E-4                    -0.0055                  298.8952429832318
5.0E-4                    -0.0045                  298.1979753838982
5.0E-4                    -0.0035                  297.094184523716
5.0E-4                    -0.0025                  295.9903936635339
5.0E-4                    -0.0015                  295.1508229183604
5.0E-4                    -5.0E-4                  294.7460121879792
5.0E-4                    5.0E-4                   294.3412014575981
5.0E-4                    0.0015                   293.86009262236195
5.0E-4                    0.0025                   293.9722411275837
5.0E-4                    0.0035                   294.0843896328054
5.0E-4                    0.0045                   293.65409179382635
5.0E-4                    0.0055                   293.4161880081266
5.0E-4                    0.0065                   293.1933386132485
5.0E-4                    0.0075                   293.1395942824202
5.0E-4                    0.0085                   293.141037847505
5.0E-4                    0.0095                   293.2309059428375
5.0E-4                    0.0105                   293.5618888822468
5.0E-4                    0.0115                   293.911210594024
5.0E-4                    0.0125                   294.49073255008796
5.0E-4                    0.0135                   294.42750301256126
5.0E-4                    0.0145                   294.36427347503457
5.0E-4                    0.0155                   294.8980703080454
5.0E-4                    0.0165                   295.42559631395574
5.0E-4                    0.0175                   295.9524619919214
5.0E-4                    0.0185                   296.5575320320484
5.0E-4                    0.0195                   297.25008322713364
5.0E-4                    0.0205                   297.8441429613756
5.0E-4                    0.0215                   298.1528901230288
5.0E-4                    0.0225                   298.4714619995256
5.0E-4                    0.0235                   298.66627572252673
5.0E-4                    0.0245                   298.92350661686487
5.0E-4                    0.0255                   299.23332765766327
5.0E-4                    0.0265                   299.3764047211394
5.0E-4                    0.0275                   300.04600683813067
5.0E-4                    0.0285                   300.74705402575245
5.0E-4                    0.0295                   301.3632687923991
5.0E-4                    0.0305                   302.4136419423977
5.0E-4                    0.0315                   303.4640150923964
0.0015                    -0.0315                  314.93924111354835
0.0015                    -0.0305                  313.72493527001177
0.0015                    -0.0295                  312.09722074174636
0.0015                    -0.0285                  309.7606061990987
0.0015                    -0.0275                  307.66854171905703
0.0015                    -0.0265                  306.3850657631205
0.0015                    -0.0255                  305.54269977504316
0.0015                    -0.0245                  304.60436196034294
0.0015                    -0.0235                  304.0018664409663
0.0015                    -0.0225                  303.7604175402141
0.0015                    -0.0215                  303.32595219454873
0.0015                    -0.0205                  302.99516003412185
0.0015                    -0.0195                  302.9087756741351
0.0015                    -0.0185                  302.5991367566166
0.0015                    -0.0175                  302.3428899131649
0.0015                    -0.0165                  302.3267662170702
0.0015                    -0.0155                  302.1387486988025
0.0015                    -0.0145                  301.9808971562448
0.0015                    -0.0135                  302.00167765227815
0.0015                    -0.0125                  301.9194836402283
0.0015                    -0.0115                  301.8165623031582
0.0015                    -0.0105                  301.7776922643226
0.0015                    -0.0095                  301.64595321862845
0.0015                    -0.0085                  301.4207126921852
0.0015                    -0.0075                  301.16578194517786
0.0015                    -0.0065                  300.7457412912178
0.0015                    -0.0055                  300.17048171093063
0.0015                    -0.0045                  299.55346930530084
0.0015                    -0.0035                  298.6539384932169
0.0015                    -0.0025                  297.6435128458515
0.0015                    -0.0015                  296.7462305628278
0.0015                    -5.0E-4                  296.1352262576964
0.0015                    5.0E-4                   295.5970648591454
0.0015                    0.0015                   294.8963661745911
0.0015                    0.0025                   294.69189975198805
0.0015                    0.0035                   294.43175817920076
0.0015                    0.0045                   293.76276463705847
0.0015                    0.0055                   293.4010062350509
0.0015                    0.0065                   293.2460607741966
0.0015                    0.0075                   293.1239279494232
0.0015                    0.0085                   293.133843042289
0.0015                    0.0095                   293.3278881545953
0.0015                    0.0105                   293.5704346827786
0.0015                    0.0115                   294.10330085575504
0.0015                    0.0125                   294.9834582995455
0.0015                    0.0135                   295.3090005509706
0.0015                    0.0145                   295.6080339434072
0.0015                    0.0155                   296.1980219169018
0.0015                    0.0165                   296.7416037518784
0.0015                    0.0175                   297.2641176358207
0.0015                    0.0185                   297.7845709860849
0.0015                    0.0195                   298.4605327803255
0.0015                    0.0205                   298.8001867505975
0.0015                    0.0215                   299.0932817079056
0.0015                    0.0225                   299.38816038138276
0.0015                    0.0235                   299.40259865759566
0.0015                    0.0245                   299.5124517212154
0.0015                    0.0255                   299.72644706969373
0.0015                    0.0265                   299.75318374273957
0.0015                    0.0275                   300.07090549793696
0.0015                    0.0285                   300.72075574400594
0.0015                    0.0295                   301.1944074345592
0.0015                    0.0305                   302.01935721569896
0.0015                    0.0315                   302.99762533658566
0.0025                    -0.0315                  313.795324845999
0.0025                    -0.0305                  312.2651920272415
0.0025                    -0.0295                  310.3889259509971
0.0025                    -0.0285                  308.10192660029895
0.0025                    -0.0275                  306.2626195176449
0.0025                    -0.0265                  305.41557954528
0.0025                    -0.0255                  304.54892161409333
0.0025                    -0.0245                  303.8666481820334
0.0025                    -0.0235                  303.6022538224847
0.0025                    -0.0225                  303.3272105646176
0.0025                    -0.0215                  303.0975531970451
0.0025                    -0.0205                  303.0168631048357
0.0025                    -0.0195                  302.9361730126263
0.0025                    -0.0185                  302.8978229366516
0.0025                    -0.0175                  302.8897927654052
0.0025                    -0.0165                  302.87808208705724
0.0025                    -0.0155                  302.8992357431413
0.0025                    -0.0145                  302.931205525004
0.0025                    -0.0135                  302.9539697384499
0.0025                    -0.0125                  302.9727221692723
0.0025                    -0.0115                  302.9334321284471
0.0025                    -0.0105                  302.8930042443363
0.0025                    -0.0095                  302.8111667815253
0.0025                    -0.0085                  302.54788824027736
0.0025                    -0.0075                  302.29314689368584
0.0025                    -0.0065                  301.9933664585801
0.0025                    -0.0055                  301.3720832266034
0.0025                    -0.0045                  300.75601942289575
0.0025                    -0.0035                  300.12930766366486
0.0025                    -0.0025                  299.2381646371505
0.0025                    -0.0015                  298.3419082116491
0.0025                    -5.0E-4                  297.4438333644343
0.0025                    5.0E-4                   296.7377667593139
0.0025                    0.0015                   296.038018360057
0.0025                    0.0025                   295.28764981500905
0.0025                    0.0035                   294.61496954375406
0.0025                    0.0045                   293.942289272499
0.0025                    0.0055                   293.4122154474901
0.0025                    0.0065                   293.28742306302354
0.0025                    0.0075                   293.162630678557
0.0025                    0.0085                   293.2139206927557
0.0025                    0.0095                   293.40744205834983
0.0025                    0.0105                   293.60096342394405
0.0025                    0.0115                   294.3779354613312
0.0025                    0.0125                   295.2578495746966
0.0025                    0.0135                   296.1901734159563
0.0025                    0.0145                   296.7929443955665
0.0025                    0.0155                   297.3832087056026
0.0025                    0.0165                   297.9571734006257
0.0025                    0.0175                   298.4750570336395
0.0025                    0.0185                   298.9929406666531
0.0025                    0.0195                   299.40927699869945
0.0025                    0.0205                   299.6976410069863
0.0025                    0.0215                   299.9860050152732
0.0025                    0.0225                   300.1090358715686
0.0025                    0.0235                   300.1224401122384
0.0025                    0.0245                   300.1271077807359
0.0025                    0.0255                   300.1179553115272
0.0025                    0.0265                   300.1322124533722
0.0025                    0.0275                   300.15669943738544
0.0025                    0.0285                   300.60443795830406
0.0025                    0.0295                   301.0573896350957
0.0025                    0.0305                   301.66194183376626
0.0025                    0.0315                   302.52880239140814
0.0035                    -0.0315                  312.04896753209596
0.0035                    -0.0305                  310.2131165248277
0.0035                    -0.0295                  308.4845509590487
0.0035                    -0.0285                  306.41505089157727
0.0035                    -0.0275                  305.6504110306437
0.0035                    -0.0265                  304.86512062658176
0.0035                    -0.0255                  303.9984626953951
0.0035                    -0.0245                  303.9016086539836
0.0035                    -0.0235                  303.76229217632056
0.0035                    -0.0225                  303.48724891845353
0.0035                    -0.0215                  303.5725545748929
0.0035                    -0.0205                  303.6487403851721
0.0035                    -0.0195                  303.56805029296277
0.0035                    -0.0185                  303.7930171738425
0.0035                    -0.0175                  304.0013249420082
0.0035                    -0.0165                  303.98961426366014
0.0035                    -0.0155                  304.2094460778561
0.0035                    -0.0145                  304.4117266834744
0.0035                    -0.0135                  304.4344908969204
0.0035                    -0.0125                  304.42949977190267
0.0035                    -0.0115                  304.4063964518277
0.0035                    -0.0105                  304.3659685677169
0.0035                    -0.0095                  304.0097346910262
0.0035                    -0.0085                  303.6157286379532
0.0035                    -0.0075                  303.3609872913617
0.0035                    -0.0065                  302.73847784831673
0.0035                    -0.0055                  302.0296092886
0.0035                    -0.0045                  301.4135454848923
0.0035                    -0.0035                  300.70889841895684
0.0035                    -0.0025                  299.91408727973715
0.0035                    -0.0015                  299.01783085423585
0.0035                    -5.0E-4                  298.1060807194923
0.0035                    5.0E-4                   297.2716166624918
0.0035                    0.0015                   296.5718682632349
0.0035                    0.0025                   295.4941167233874
0.0035                    0.0035                   294.55588248809187
0.0035                    0.0045                   293.8832022168369
0.0035                    0.0055                   293.4730741659169
0.0035                    0.0065                   293.25339605854043
0.0035                    0.0075                   293.1664854764222
0.0035                    0.0085                   293.2018512972429
0.0035                    0.0095                   293.3818214519737
0.0035                    0.0105                   293.7945467556179
0.0035                    0.0115                   294.4614274003729
0.0035                    0.0125                   295.34134151373826
0.0035                    0.0135                   296.4670903346373
0.0035                    0.0145                   297.4459876805987
0.0035                    0.0155                   298.0362519906348
0.0035                    0.0165                   298.5959715395355
0.0035                    0.0175                   299.1315759268963
0.0035                    0.0185                   299.63065842566607
0.0035                    0.0195                   299.997733634587
0.0035                    0.0205                   300.30706066310955
0.0035                    0.0215                   300.56305017841464
0.0035                    0.0225                   300.7613493365848
0.0035                    0.0235                   300.775559762022
0.0035                    0.0245                   300.68863457375903
0.0035                    0.0255                   300.61928885093766
0.0035                    0.0265                   300.63354599278256
0.0035                    0.0275                   300.4829620898669
0.0035                    0.0285                   300.5125861760847
0.0035                    0.0295                   300.8658722426251
0.0035                    0.0305                   301.507086529347
0.0035                    0.0315                   302.31848598221256
0.0045                    -0.0315                  310.5207068588197
0.0045                    -0.0305                  308.55574412934396
0.0045                    -0.0295                  306.6614304187596
0.0045                    -0.0285                  305.8388514047065
0.0045                    -0.0275                  305.06620987779513
0.0045                    -0.0265                  304.29356835088373
0.0045                    -0.0255                  303.9892159153031
0.0045                    -0.0245                  303.93656912593383
0.0045                    -0.0235                  303.88392233656447
0.0045                    -0.0225                  303.84548075840695
0.0045                    -0.0215                  304.0364347169637
0.0045                    -0.0205                  304.22738867552044
0.0045                    -0.0195                  304.3506030703369
0.0045                    -0.0185                  304.6882114110334
0.0045                    -0.0175                  305.02581975172995
0.0045                    -0.0165                  305.22180080224837
0.0045                    -0.0155                  305.51965641257095
0.0045                    -0.0145                  305.8175120228934
0.0045                    -0.0135                  305.90043008436555
0.0045                    -0.0125                  305.88627737453305
0.0045                    -0.0115                  305.87212466470044
0.0045                    -0.0105                  305.6761648752342
0.0045                    -0.0095                  305.2083026005272
0.0045                    -0.0085                  304.74044032582026
0.0045                    -0.0075                  304.24331993259096
0.0045                    -0.0065                  303.48358923805336
0.0045                    -0.0055                  302.72385854351563
0.0045                    -0.0045                  302.0267085046766
0.0045                    -0.0035                  301.28848917424887
0.0045                    -0.0025                  300.5502698438211
0.0045                    -0.0015                  299.68600142204343
0.0045                    -5.0E-4                  298.76832807455037
0.0045                    5.0E-4                   297.85065472705725
0.0045                    0.0015                   296.8960311934141
0.0045                    0.0025                   295.7118679824942
0.0045                    0.0035                   294.52770477157424
0.0045                    0.0045                   293.98899419825534
0.0045                    0.0055                   293.58604869631375
0.0045                    0.0065                   293.21936905405727
0.0045                    0.0075                   293.22934527916084
0.0045                    0.0085                   293.26471109998147
0.0045                    0.0095                   293.3969935348835
0.0045                    0.0105                   294.02579221937947
0.0045                    0.0115                   294.6545909038754
0.0045                    0.0125                   295.5356076403151
0.0045                    0.0135                   296.7440072533183
0.0045                    0.0145                   297.9524068663215
0.0045                    0.0155                   298.6718782954279
0.0045                    0.0165                   299.22910910869336
0.0045                    0.0175                   299.7863399219589
0.0045                    0.0185                   300.19421172963047
0.0045                    0.0195                   300.5612869385515
0.0045                    0.0205                   300.9164803192328
0.0045                    0.0215                   301.11665740486114
0.0045                    0.0225                   301.3149565630313
0.0045                    0.0235                   301.3875835771804
0.0045                    0.0245                   301.25016136678227
0.0045                    0.0255                   301.10106326597196
0.0045                    0.0265                   300.937675805781
0.0045                    0.0275                   300.7742883455901
0.0045                    0.0285                   300.81706550396734
0.0045                    0.0295                   300.8644130722186
0.0045                    0.0305                   301.34220521520166
0.0045                    0.0315                   302.1439259125968
0.0055                    -0.0315                  308.9924461855435
0.0055                    -0.0305                  307.59152384626793
0.0055                    -0.0295                  306.2366622007755
0.0055                    -0.0285                  305.5477193896727
0.0055                    -0.0275                  304.78701420680227
0.0055                    -0.0265                  304.2520886696773
0.0055                    -0.0255                  304.2635777167319
0.0055                    -0.0245                  304.17938038949853
0.0055                    -0.0235                  304.1280345920371
0.0055                    -0.0225                  304.540944851739
0.0055                    -0.0215                  304.72908604030425
0.0055                    -0.0205                  304.9172272288695
0.0055                    -0.0195                  305.54137028948173
0.0055                    -0.0185                  305.8893268846796
0.0055                    -0.0175                  306.24045093670185
0.0055                    -0.0165                  306.68043068644363
0.0055                    -0.0155                  306.97981523019797
0.0055                    -0.0145                  307.2615492951371
0.0055                    -0.0135                  307.19646335888206
0.0055                    -0.0125                  307.18298143742715
0.0055                    -0.0115                  307.1531674221194
0.0055                    -0.0105                  306.52417350528873
0.0055                    -0.0095                  306.0593419578256
0.0055                    -0.0085                  305.58988741283093
0.0055                    -0.0075                  304.46094749224
0.0055                    -0.0065                  303.70458350652655
0.0055                    -0.0055                  302.94797315063033
0.0055                    -0.0045                  301.8873042383461
0.0055                    -0.0035                  301.15053286224725
0.0055                    -0.0025                  300.41354745279585
0.0055                    -0.0015                  299.5745459749638
0.0055                    -5.0E-4                  298.6492843927822
0.0055                    5.0E-4                   297.7374909125996
0.0055                    0.0015                   296.87585469226553
0.0055                    0.0025                   295.69035852279575
0.0055                    0.0035                   294.5954137579161
0.0055                    0.0045                   293.9406754942793
0.0055                    0.0055                   293.53586401961445
0.0055                    0.0065                   293.26234702809586
0.0055                    0.0075                   293.23338519844077
0.0055                    0.0085                   293.2679706926227
0.0055                    0.0095                   293.48162171260543
0.0055                    0.0105                   294.03556669208757
0.0055                    0.0115                   294.66080881604466
0.0055                    0.0125                   295.76734793404404
0.0055                    0.0135                   296.97427621514214
0.0055                    0.0145                   298.0891992784293
0.0055                    0.0155                   298.62031701973945
0.0055                    0.0165                   299.1722514297539
0.0055                    0.0175                   299.74112308970217
0.0055                    0.0185                   300.253160265381
0.0055                    0.0195                   300.61281363467987
0.0055                    0.0205                   301.05321746300365
0.0055                    0.0215                   301.38676387309704
0.0055                    0.0225                   301.58736160473325
0.0055                    0.0235                   301.764066213785
0.0055                    0.0245                   301.6622733007129
0.0055                    0.0255                   301.4844534060711
0.0055                    0.0265                   301.2617955027714
0.0055                    0.0275                   301.0741972635988
0.0055                    0.0285                   301.0702411652731
0.0055                    0.0295                   301.0310103717959
0.0055                    0.0305                   301.40814034893884
0.0055                    0.0315                   301.9728102971717
0.0065                    -0.0315                  308.5168205157232
0.0065                    -0.0305                  307.1667556282839
0.0065                    -0.0295                  305.85146431239326
0.0065                    -0.0285                  305.17940717074543
0.0065                    -0.0275                  304.50735002909755
0.0065                    -0.0265                  304.4808663688543
0.0065                    -0.0255                  304.5047528532505
0.0065                    -0.0245                  304.46094774267976
0.0065                    -0.0235                  304.75646413610406
0.0065                    -0.0225                  305.2273418728033
0.0065                    -0.0215                  305.541830581984
0.0065                    -0.0205                  306.0291838657959
0.0065                    -0.0195                  306.73743613686156
0.0065                    -0.0185                  307.23385994460335
0.0065                    -0.0175                  307.6565181905778
0.0065                    -0.0165                  308.1167523547749
0.0065                    -0.0155                  308.49676144128824
0.0065                    -0.0145                  308.53540816261915
0.0065                    -0.0135                  308.46425648597733
0.0065                    -0.0125                  308.4208202627577
0.0065                    -0.0115                  307.98037334697676
0.0065                    -0.0105                  307.33122917583137
0.0065                    -0.0095                  306.7731980673189
0.0065                    -0.0085                  305.845852488013
0.0065                    -0.0075                  304.66457199957233
0.0065                    -0.0065                  303.7019618335441
0.0065                    -0.0055                  302.71761012404954
0.0065                    -0.0045                  301.6038982035692
0.0065                    -0.0035                  300.6936143353914
0.0065                    -0.0025                  299.90188506209614
0.0065                    -0.0015                  299.07977032361555
0.0065                    -5.0E-4                  298.19680020658984
0.0065                    5.0E-4                   297.3917308469461
0.0065                    0.0015                   296.63134405480713
0.0065                    0.0025                   295.5742896644818
0.0065                    0.0035                   294.7126224086958
0.0065                    0.0045                   293.8955025781776
0.0065                    0.0055                   293.44853392153107
0.0065                    0.0065                   293.3317144239262
0.0065                    0.0075                   293.2183458128416
0.0065                    0.0085                   293.32905010538326
0.0065                    0.0095                   293.62210527182935
0.0065                    0.0105                   293.98589080144035
0.0065                    0.0115                   294.88456894040087