% Model:              SIMBench260525.mph
% Version:            COMSOL 6.2.0.339
% Date:               May 27 2026, 17:38
% Dimension:          2
% Nodes:              4096
% Expressions:        1
% Description:        温度
% Length unit:        m
% x                       y                        T (K)
% mirrored_by_python_y_to_minus_y, coord_match_decimals=12
0.0005 -0.0315 301.402521931
0.0005 -0.0305 300.47137462
0.0005 -0.0295 299.540227309
0.0005 -0.0285 299.026759177
0.0005 -0.0275 298.429042266
0.0005 -0.0265 297.858620752
0.0005 -0.0255 297.74949686
0.0005 -0.0245 297.501733151
0.0005 -0.0235 297.2984321
0.0005 -0.0225 297.148697717
0.0005 -0.0215 296.894894775
0.0005 -0.0205 296.651477806
0.0005 -0.0195 296.194941362
0.0005 -0.0185 295.66255195
0.0005 -0.0175 295.191679135
0.0005 -0.0165 294.820173315
0.0005 -0.0155 294.452717804
0.0005 -0.0145 294.054287659
0.0005 -0.0135 294.119567487
0.0005 -0.0125 294.184847315
0.0005 -0.0115 293.737407987
0.0005 -0.0105 293.466387866
0.0005 -0.0095 293.209535816
0.0005 -0.0085 293.140122181
0.0005 -0.0075 293.139677508
0.0005 -0.0065 293.198131232
0.0005 -0.0055 293.435442141
0.0005 -0.0045 293.688559497
0.0005 -0.0035 294.138205713
0.0005 -0.0025 294.034738647
0.0005 -0.0015 293.931271581
0.0005 -0.0005 294.409500529
0.0005 0.0005 294.856663972
0.0005 0.0015 295.303827415
0.0005 0.0025 296.121103464
0.0005 0.0035 297.16919353
0.0005 0.0045 298.217283597
0.0005 0.0055 298.860770909
0.0005 0.0065 299.34785964
0.0005 0.0075 299.834948372
0.0005 0.0085 300.101844497
0.0005 0.0095 300.270266103
0.0005 0.0105 300.438687709
0.0005 0.0115 300.502097525
0.0005 0.0125 300.624930478
0.0005 0.0135 300.74776343
0.0005 0.0145 300.797207631
0.0005 0.0155 301.09038749
0.0005 0.0165 301.383567348
0.0005 0.0175 301.522127608
0.0005 0.0185 301.963260798
0.0005 0.0195 302.404393987
0.0005 0.0205 302.631939906
0.0005 0.0215 303.155592375
0.0005 0.0225 303.679244844
0.0005 0.0235 304.079164658
0.0005 0.0245 305.023215351
0.0005 0.0255 305.967266044
0.0005 0.0265 306.904144657
0.0005 0.0275 308.526778243
0.0005 0.0285 310.149411829
0.0005 0.0295 311.866630935
0.0005 0.0305 313.03003392
0.0005 0.0315 314.188300781
0.0015 -0.0315 300.95061111
0.0015 -0.0305 300.094656772
0.0015 -0.0295 299.381052786
0.0015 -0.0285 299.00646669
0.0015 -0.0275 298.458986549
0.0015 -0.0265 298.194009235
0.0015 -0.0255 298.181616935
0.0015 -0.0245 298.013527806
0.0015 -0.0235 297.934828234
0.0015 -0.0225 297.93679767
0.0015 -0.0215 297.702889117
0.0015 -0.0205 297.476013166
0.0015 -0.0195 297.215211656
0.0015 -0.0185 296.694400124
0.0015 -0.0175 296.283091051
0.0015 -0.0165 295.884690228
0.0015 -0.0155 295.4937906
0.0015 -0.0145 295.037186353
0.0015 -0.0135 294.813038462
0.0015 -0.0125 294.569371054
0.0015 -0.0115 293.884964796
0.0015 -0.0105 293.470720477
0.0015 -0.0095 293.282331765
0.0015 -0.0085 293.131693232
0.0015 -0.0075 293.124600152
0.0015 -0.0065 293.256024433
0.0015 -0.0055 293.422028008
0.0015 -0.0045 293.801592996
0.0015 -0.0035 294.494765253
0.0015 -0.0025 294.770966656
0.0015 -0.0015 294.972714517
0.0015 -0.0005 295.652821598
0.0015 0.0005 296.205653501
0.0015 0.0015 296.826907904
0.0015 0.0025 297.692076991
0.0015 0.0035 298.657481648
0.0015 0.0045 299.502293603
0.0015 0.0055 300.066019492
0.0015 0.0065 300.587943584
0.0015 0.0075 300.965682948
0.0015 0.0085 301.193143071
0.0015 0.0095 301.38863196
0.0015 0.0105 301.49185273
0.0015 0.0115 301.506404867
0.0015 0.0125 301.578861411
0.0015 0.0135 301.631492029
0.0015 0.0145 301.589513318
0.0015 0.0155 301.727194015
0.0015 0.0165 301.899139726
0.0015 0.0175 301.90335267
0.0015 0.0185 302.142874796
0.0015 0.0195 302.436285033
0.0015 0.0205 302.513062141
0.0015 0.0215 302.825512553
0.0015 0.0225 303.237687359
0.0015 0.0235 303.463335222
0.0015 0.0245 304.025271994
0.0015 0.0255 304.89673858
0.0015 0.0265 305.674579476
0.0015 0.0275 306.835907832
0.0015 0.0285 308.639650128
0.0015 0.0295 310.602727864
0.0015 0.0305 311.972156785
0.0015 0.0315 312.989144604
0.0025 -0.0315 300.496162897
0.0025 -0.0305 299.759493716
0.0025 -0.0295 299.263716226
0.0025 -0.0285 298.901525705
0.0025 -0.0275 298.541790019
0.0025 -0.0265 298.531174549
0.0025 -0.0255 298.528638726
0.0025 -0.0245 298.546500317
0.0025 -0.0235 298.556751367
0.0025 -0.0225 298.559681556
0.0025 -0.0215 298.47427314
0.0025 -0.0205 298.251425273
0.0025 -0.0195 298.028577406
0.0025 -0.0185 297.703158194
0.0025 -0.0175 297.293763296
0.0025 -0.0165 296.884368398
0.0025 -0.0155 296.429960856
0.0025 -0.0145 295.973787673
0.0025 -0.0135 295.507707051
0.0025 -0.0125 294.779008143
0.0025 -0.0115 294.094855702
0.0025 -0.0105 293.492009182
0.0025 -0.0095 293.341757618
0.0025 -0.0085 293.191506053
0.0025 -0.0075 293.167532681
0.0025 -0.0065 293.301852819
0.0025 -0.0055 293.436172957
0.0025 -0.0045 293.988616215
0.0025 -0.0035 294.685350277
0.0025 -0.0025 295.382084339
0.0025 -0.0015 296.113228399
0.0025 -0.0005 296.792169113
0.0025 0.0005 297.475159033
0.0025 0.0015 298.337211307
0.0025 0.0025 299.201693483
0.0025 0.0035 300.06225549
0.0025 0.0045 300.640759094
0.0025 0.0055 301.203554458
0.0025 0.0065 301.77086741
0.0025 0.0075 302.040533446
0.0025 0.0085 302.267839641
0.0025 0.0095 302.502046695
0.0025 0.0105 302.555786681
0.0025 0.0115 302.571689812
0.0025 0.0125 302.586097923
0.0025 0.0135 302.54513102
0.0025 0.0145 302.501459322
0.0025 0.0155 302.449546728
0.0025 0.0165 302.418605069
0.0025 0.0175 302.418752566
0.0025 0.0185 302.415548135
0.0025 0.0195 302.447152232
0.0025 0.0205 302.51846488
0.0025 0.0215 302.589777528
0.0025 0.0225 302.804835151
0.0025 0.0235 303.063089761
0.0025 0.0245 303.311058835
0.0025 0.0255 303.940892076
0.0025 0.0265 304.742447083
0.0025 0.0275 305.514236723
0.0025 0.0285 307.070189209
0.0025 0.0295 309.004896035
0.0025 0.0305 310.546159364
0.0025 0.0315 311.789988426
0.0035 -0.0315 300.312571241
0.0035 -0.0305 299.641827537
0.0035 -0.0295 299.11374424
0.0035 -0.0285 298.835101455
0.0035 -0.0275 298.82727961
0.0035 -0.0265 298.96493762
0.0035 -0.0255 298.962401797
0.0035 -0.0245 299.032711365
0.0035 -0.0235 299.119816606
0.0035 -0.0225 299.122347345
0.0035 -0.0215 298.980162043
0.0035 -0.0205 298.786439866
0.0035 -0.0195 298.548000804
0.0035 -0.0185 298.264898575
0.0035 -0.0175 297.87163905
0.0035 -0.0165 297.429676487
0.0035 -0.0155 296.950357992
0.0035 -0.0145 296.494184809
0.0035 -0.0135 295.722039013
0.0035 -0.0125 294.828748179
0.0035 -0.0115 294.144595738
0.0035 -0.0105 293.635140685
0.0035 -0.0095 293.320148855
0.0035 -0.0085 293.181353351
0.0035 -0.0075 293.168130665
0.0035 -0.0065 293.267489601
0.0035 -0.0055 293.503798814
0.0035 -0.0045 293.944516005
0.0035 -0.0035 294.641250067
0.0035 -0.0025 295.58317314
0.0035 -0.0015 296.644542413
0.0035 -0.0005 297.323483126
0.0035 0.0005 298.100035875
0.0035 0.0015 298.944787965
0.0035 0.0025 299.80927014
0.0035 0.0035 300.59614503
0.0035 0.0045 301.289756399
0.0035 0.0055 301.852551764
0.0035 0.0065 302.4987924
0.0035 0.0075 303.065281888
0.0035 0.0085 303.292588083
0.0035 0.0095 303.634503741
0.0035 0.0105 303.936667838
0.0035 0.0115 303.952570969
0.0035 0.0125 303.945608049
0.0035 0.0135 303.920649705
0.0035 0.0145 303.876978007
0.0035 0.0155 303.671549881
0.0035 0.0165 303.453244145
0.0035 0.0175 303.453391642
0.0035 0.0185 303.251678323
0.0035 0.0195 303.036702486
0.0035 0.0205 303.108015134
0.0035 0.0215 303.031729687
0.0035 0.0225 302.947787952
0.0035 0.0235 303.206042563
0.0035 0.0245 303.333201623
0.0035 0.0255 303.417819592
0.0035 0.0265 304.219374599
0.0035 0.0275 304.897474645
0.0035 0.0285 305.544242634
0.0035 0.0295 307.294941821
0.0035 0.0305 308.694722078
0.0035 0.0315 310.215676288
0.0045 -0.0315 300.145818729
0.0045 -0.0305 299.499185671
0.0045 -0.0295 299.123094353
0.0045 -0.0285 299.100913843
0.0045 -0.0275 299.082435914
0.0045 -0.0265 299.23098308
0.0045 -0.0255 299.379530245
0.0045 -0.0245 299.518922414
0.0045 -0.0235 299.648548831
0.0045 -0.0225 299.60725815
0.0045 -0.0215 299.465072848
0.0045 -0.0205 299.32145446
0.0045 -0.0195 299.048233093
0.0045 -0.0185 298.765130863
0.0045 -0.0175 298.446362137
0.0045 -0.0165 297.965285517
0.0045 -0.0155 297.484208896
0.0045 -0.0145 296.899329349
0.0045 -0.0135 295.936370976
0.0045 -0.0125 294.973412602
0.0045 -0.0115 294.282760618
0.0045 -0.0105 293.806152833
0.0045 -0.0095 293.329545047
0.0045 -0.0085 293.236244236
0.0045 -0.0075 293.22302155
0.0045 -0.0065 293.233126383
0.0045 -0.0055 293.627515149
0.0045 -0.0045 294.061208257
0.0045 -0.0035 294.625643861
0.0045 -0.0025 295.794681659
0.0045 -0.0015 296.963719457
0.0045 -0.0005 297.887572917
0.0045 0.0005 298.724912718
0.0045 0.0015 299.562252519
0.0045 0.0025 300.386581913
0.0045 0.0035 301.130034571
0.0045 0.0045 301.873487228
0.0045 0.0055 302.534710018
0.0045 0.0065 303.226717391
0.0045 0.0075 303.918724763
0.0045 0.0085 304.364041121
0.0045 0.0095 304.766960787
0.0045 0.0105 305.169880454
0.0045 0.0115 305.323917737
0.0045 0.0125 305.305118174
0.0045 0.0135 305.286318611
0.0045 0.0145 305.185268174
0.0045 0.0155 304.893553033
0.0045 0.0165 304.601837892
0.0045 0.0175 304.408241826
0.0045 0.0185 304.08780851
0.0045 0.0195 303.767375194
0.0045 0.0205 303.647485997
0.0045 0.0215 303.463218109
0.0045 0.0225 303.27895022
0.0045 0.0235 303.311897724
0.0045 0.0245 303.355344412
0.0045 0.0255 303.398791099
0.0045 0.0265 303.657069084
0.0045 0.0275 304.313086181
0.0045 0.0285 304.969103277
0.0045 0.0295 305.664784908
0.0045 0.0305 307.265853986
0.0045 0.0315 308.925035222
0.0055 -0.0315 299.982166214
0.0055 -0.0305 299.548878052
0.0055 -0.0295 299.267025021
0.0055 -0.0285 299.321375774
0.0055 -0.0275 299.344545722
0.0055 -0.0265 299.509241245
0.0055 -0.0255 299.69954224
0.0055 -0.0245 299.858810579
0.0055 -0.0235 299.959731906
0.0055 -0.0225 299.848220898
0.0055 -0.0215 299.70472044
0.0055 -0.0205 299.452717242
0.0055 -0.0195 299.10770809
0.0055 -0.0185 298.829442195
0.0055 -0.0175 298.40280524
0.0055 -0.0165 297.913091626
0.0055 -0.0155 297.435613171
0.0055 -0.0145 296.98158318
0.0055 -0.0135 296.093494404
0.0055 -0.0125 295.131371718
0.0055 -0.0115 294.280032192
0.0055 -0.0105 293.805814853
0.0055 -0.0095 293.387022751
0.0055 -0.0085 293.236801053
0.0055 -0.0075 293.224255689
0.0055 -0.0065 293.277949869
0.0055 -0.0055 293.581322067
0.0055 -0.0045 294.016920514
0.0055 -0.0035 294.710748357
0.0055 -0.0025 295.804939876
0.0055 -0.0015 296.975095094
0.0055 -0.0005 297.798961741
0.0055 0.0005 298.632428904
0.0055 0.0015 299.476622042
0.0055 0.0025 300.275342555
0.0055 0.0035 301.017959007
0.0055 0.0045 301.760387192
0.0055 0.0055 302.84325089
0.0055 0.0065 303.532382059
0.0055 0.0075 304.221513228
0.0055 0.0085 305.228720317
0.0055 0.0095 305.634245034
0.0055 0.0105 306.034876235
0.0055 0.0115 306.554773671
0.0055 0.0125 306.550392206
0.0055 0.0135 306.531096476
0.0055 0.0145 306.545898572
0.0055 0.0155 306.268006781
0.0055 0.0165 305.97473657
0.0055 0.0175 305.540673167
0.0055 0.0185 305.20702354
0.0055 0.0195 304.87696823
0.0055 0.0205 304.287827575
0.0055 0.0215 304.106159528
0.0055 0.0225 303.924491481
0.0055 0.0235 303.538884765
0.0055 0.0245 303.58320399
0.0055 0.0255 303.657877286
0.0055 0.0265 303.632468845
0.0055 0.0275 304.081252852
0.0055 0.0285 304.723831648
0.0055 0.0295 305.281818539
0.0055 0.0305 306.439162799
0.0055 0.0315 307.634394156
0.0065 -0.0315 300.12525194
0.0065 -0.0305 299.707638955
0.0065 -0.0295 299.390799022
0.0065 -0.0285 299.447502522
0.0065 -0.0275 299.52529191
0.0065 -0.0265 299.781705826
0.0065 -0.0255 300.019932792
0.0065 -0.0245 300.191882925
0.0065 -0.0235 300.131925848
0.0065 -0.0225 300.025268347
0.0065 -0.0215 299.888717345
0.0065 -0.0205 299.496542702
0.0065 -0.0195 299.104368059
0.0065 -0.0185 298.752411239
0.0065 -0.0175 298.240121791
0.0065 -0.0165 297.729254989
0.0065 -0.0155 297.263434415
0.0065 -0.0145 296.81459615
0.0065 -0.0135 296.236772158
0.0065 -0.0125 295.324305179
0.0065 -0.0115 294.447032704
0.0065 -0.0105 293.75836885
0.0065 -0.0095 293.490091629
0.0065 -0.0085 293.279127184
0.0065 -0.0075 293.207988878
0.0065 -0.0065 293.349883761
0.0065 -0.0055 293.495663526
0.0065 -0.0045 293.975206041
0.0065 -0.0035 294.836949022
0.0065 -0.0025 295.735644555
0.0065 -0.0015 296.769954612
0.0065 -0.0005 297.484585066
0.0065 0.0005 298.23398158
0.0065 0.0015 299.056112018
0.0065 0.0025 299.845710413
0.0065 0.0035 300.61855013
0.0065 0.0045 301.543565016
0.0065 0.0055 302.682204604
0.0065 0.0065 303.657706692
0.0065 0.0075 304.522944409
0.0065 0.0085 305.575106754
0.0065 0.0095 306.396914396
0.0065 0.0105 306.865520963
0.0065 0.0115 307.399974834
0.0065 0.0125 307.753695649
0.0065 0.0135 307.75415538
0.0065 0.0145 307.773011345
0.0065 0.0155 307.700092317
0.0065 0.0165 307.326148909
0.0065 0.0175 306.871719616
0.0065 0.0185 306.458836536
0.0065 0.0195 305.989604752
0.0065 0.0205 305.321576317
0.0065 0.0215 304.860103004
0.0065 0.0225 304.563798877
0.0065 0.0235 304.125595353
0.0065 0.0245 303.849421749
0.0065 0.0255 303.881847408
0.0065 0.0265 303.843472052
0.0065 0.0275 303.84889155
0.0065 0.0285 304.391670027
0.0065 0.0295 304.934448505
0.0065 0.0305 306.056196429
0.0065 0.0315 307.201010011
0.0075 -0.0315 300.242954666
0.0075 -0.0305 299.834304573
0.0075 -0.0295 299.523905377
0.0075 -0.0285 299.607419084
0.0075 -0.0275 299.685208473
0.0075 -0.0265 299.925999959
0.0075 -0.0255 300.2054936
0.0075 -0.0245 300.403424941
0.0075 -0.0235 300.292563061
0.0075 -0.0225 300.184045551
0.0075 -0.0215 299.855770184
0.0075 -0.0205 299.460726288
0.0075 -0.0195 299.072841283
0.0075 -0.0185 298.525518164
0.0075 -0.0175 298.014838606
0.0075 -0.0165 297.504159048
0.0075 -0.0155 297.198157034
0.0075 -0.0145 296.747009975
0.0075 -0.0135 296.249034064
0.0075 -0.0125 295.426207511
0.0075 -0.0115 294.551013672
0.0075 -0.0105 293.795103193
0.0075 -0.0095 293.543960664
0.0075 -0.0085 293.334887255
0.0075 -0.0075 293.233999201
0.0075 -0.0065 293.381166464
0.0075 -0.0055 293.528333727
0.0075 -0.0045 293.995135024
0.0075 -0.0035 294.861147176
0.0075 -0.0025 295.727159328
0.0075 -0.0015 296.539453983
0.0075 -0.0005 297.253371607
0.0075 0.0005 297.96728923
0.0075 0.0015 298.57625868
0.0075 0.0025 299.366591162
0.0075 0.0035 300.165570903
0.0075 0.0045 301.251472503
0.0075 0.0055 302.387547041
0.0075 0.0065 303.563603281
0.0075 0.0075 304.755186222
0.0075 0.0085 305.80353285
0.0075 0.0095 306.868853412
0.0075 0.0105 307.584791989
0.0075 0.0115 308.11464429
0.0075 0.0125 308.64217336
0.0075 0.0135 308.818036723
0.0075 0.0145 308.834238948
0.0075 0.0155 308.844478606
0.0075 0.0165 308.547456587
0.0075 0.0175 308.10603982
0.0075 0.0185 307.660300145
0.0075 0.0195 307.023872123
0.0075 0.0205 306.356510458
0.0075 0.0215 305.674910049
0.0075 0.0225 305.158317534
0.0075 0.0235 304.719290566
0.0075 0.0245 304.280263598
0.0075 0.0255 304.050298362
0.0075 0.0265 303.979442037
0.0075 0.0275 303.957221957
0.0075 0.0285 304.308771508
0.0075 0.0295 304.660321059
0.0075 0.0305 305.649004471
0.0075 0.0315 306.78128592
0.0085 -0.0315 300.363183839
0.0085 -0.0305 299.9708599
0.0085 -0.0295 299.652927286
0.0085 -0.0285 299.748655064
0.0085 -0.0275 299.844382842
0.0085 -0.0265 300.078591644
0.0085 -0.0255 300.375012744
0.0085 -0.0245 300.565113486
0.0085 -0.0235 300.442628151
0.0085 -0.0225 300.331135317
0.0085 -0.0215 299.827459699
0.0085 -0.0205 299.359450796
0.0085 -0.0195 298.880935973
0.0085 -0.0185 298.271876219
0.0085 -0.0175 297.723363404
0.0085 -0.0165 297.399192427
0.0085 -0.0155 297.207541015
0.0085 -0.0145 296.799939163
0.0085 -0.0135 296.141411094
0.0085 -0.0125 295.408218091
0.0085 -0.0115 294.533024253
0.0085 -0.0105 293.970256411
0.0085 -0.0095 293.522794087
0.0085 -0.0085 293.329459098
0.0085 -0.0075 293.286680237
0.0085 -0.0065 293.338427369
0.0085 -0.0055 293.556125535
0.0085 -0.0045 293.94862068
0.0085 -0.0035 294.665025156
0.0085 -0.0025 295.553832723
0.0085 -0.0015 296.478992896
0.0085 -0.0005 297.221205691
0.0085 0.0005 297.710417223
0.0085 0.0015 297.98743564
0.0085 0.0025 298.762742045
0.0085 0.0035 299.656827824
0.0085 0.0045 300.630702613
0.0085 0.0055 301.76677715
0.0085 0.0065 303.20511083
0.0085 0.0075 304.727771094
0.0085 0.0085 305.776117722
0.0085 0.0095 306.92587463
0.0085 0.0105 308.057377269
0.0085 0.0115 308.587229571
0.0085 0.0125 309.104614803
0.0085 0.0135 309.603031757
0.0085 0.0145 309.619233982
0.0085 0.0155 309.600895536
0.0085 0.0165 309.560875944
0.0085 0.0175 309.119459177
0.0085 0.0185 308.59681598
0.0085 0.0195 308.01892854
0.0085 0.0205 307.351566876
0.0085 0.0215 306.562425833
0.0085 0.0225 305.783977728
0.0085 0.0235 305.344950759
0.0085 0.0245 304.705428626
0.0085 0.0255 304.334340796
0.0085 0.0265 304.092506574
0.0085 0.0275 304.091120349
0.0085 0.0285 304.385516674
0.0085 0.0295 304.632715207
0.0085 0.0305 305.460664943
0.0085 0.0315 306.3797644
0.0095 -0.0315 300.535439748
0.0095 -0.0305 300.113363802
0.0095 -0.0295 299.781949195
0.0095 -0.0285 299.873395099
0.0095 -0.0275 299.926057911
0.0095 -0.0265 300.205875059
0.0095 -0.0255 300.54736943
0.0095 -0.0245 300.726802031
0.0095 -0.0235 300.598998045
0.0095 -0.0225 300.279328799
0.0095 -0.0215 299.776016842
0.0095 -0.0205 299.26624706
0.0095 -0.0195 298.634690787
0.0095 -0.0185 298.027701414
0.0095 -0.0175 297.48530816
0.0095 -0.0165 297.293883294
0.0095 -0.0155 297.102458428
0.0095 -0.0145 296.780132577
0.0095 -0.0135 296.050880134
0.0095 -0.0125 295.321627692
0.0095 -0.0115 294.676303661
0.0095 -0.0105 294.142599411
0.0095 -0.0095 293.60535506
0.0095 -0.0085 293.401540437
0.0095 -0.0075 293.358761576
0.0095 -0.0065 293.315982716
0.0095 -0.0055 293.654912983
0.0095 -0.0045 294.047408128
0.0095 -0.0035 294.468903135
0.0095 -0.0025 295.390040768
0.0095 -0.0015 296.315200941
0.0095 -0.0005 297.16256792
0.0095 0.0005 297.439586337
0.0095 0.0015 297.716604754
0.0095 0.0025 298.189338811
0.0095 0.0035 299.148084744
0.0095 0.0045 300.106830677
0.0095 0.0055 301.273795767
0.0095 0.0065 302.846618378
0.0095 0.0075 304.419440989
0.0095 0.0085 305.796392567
0.0095 0.0095 306.982895848
0.0095 0.0105 308.169399129
0.0095 0.0115 309.053258356
0.0095 0.0125 309.567056247
0.0095 0.0135 310.074811281
0.0095 0.0145 310.372182027
0.0095 0.0155 310.348277321
0.0095 0.0165 310.324372616
0.0095 0.0175 310.086536204
0.0095 0.0185 309.533331816
0.0095 0.0195 308.980127429
0.0095 0.0205 308.327784205
0.0095 0.0215 307.449941616
0.0095 0.0225 306.567321336
0.0095 0.0235 305.787640225
0.0095 0.0245 305.113998975
0.0095 0.0255 304.710573707
0.0095 0.0265 304.445085889
0.0095 0.0275 304.192940687
0.0095 0.0285 304.355197983
0.0095 0.0295 304.602396516
0.0095 0.0305 305.429849924
0.0095 0.0315 306.325621422
0.0105 -0.0315 300.739964919
0.0105 -0.0305 300.311293941
0.0105 -0.0295 299.905781822
0.0105 -0.0285 299.933451417
0.0105 -0.0275 299.986114229
0.0105 -0.0265 300.263691105
0.0105 -0.0255 300.634553695
0.0105 -0.0245 300.765667541
0.0105 -0.0235 300.454401232
0.0105 -0.0225 300.159495525
0.0105 -0.0215 299.677256803
0.0105 -0.0205 299.018065496
0.0105 -0.0195 298.328492535
0.0105 -0.0185 297.721503162
0.0105 -0.0175 297.397739874
0.0105 -0.0165 297.175332783
0.0105 -0.0155 296.983907917
0.0105 -0.0145 296.720766002
0.0105 -0.0135 296.170406327
0.0105 -0.0125 295.438426278
0.0105 -0.0115 294.678669475
0.0105 -0.0105 294.109619079
0.0105 -0.0095 293.637203948
0.0105 -0.0085 293.385599738
0.0105 -0.0075 293.342733293
0.0105 -0.0065 293.354033628
0.0105 -0.0055 293.539781249
0.0105 -0.0045 293.939004002
0.0105 -0.0035 294.474230853
0.0105 -0.0025 295.257498963
0.0105 -0.0015 296.182088418
0.0105 -0.0005 296.900190505
0.0105 0.0005 297.313013597
0.0105 0.0015 297.592323822
0.0105 0.0025 297.832894513
0.0105 0.0035 298.562271037
0.0105 0.0045 299.521453386
0.0105 0.0055 300.640393016
0.0105 0.0065 302.13639325
0.0105 0.0075 303.704571229
0.0105 0.0085 305.624764011
0.0105 0.0095 306.92516204
0.0105 0.0105 308.105270932
0.0105 0.0115 309.140554437
0.0105 0.0125 309.735979581
0.0105 0.0135 310.231073426
0.0105 0.0145 310.608015197
0.0105 0.0155 310.665603162
0.0105 0.0165 310.634765057
0.0105 0.0175 310.534297525
0.0105 0.0185 310.08738738
0.0105 0.0195 309.640477236
0.0105 0.0205 309.044603294
0.0105 0.0215 308.139017157
0.0105 0.0225 307.193859711
0.0105 0.0235 306.387886313
0.0105 0.0245 305.611712874
0.0105 0.0255 304.976320132
0.0105 0.0265 304.608993955
0.0105 0.0275 304.355826448
0.0105 0.0285 304.495043548
0.0105 0.0295 304.619826415
0.0105 0.0305 305.357356408
0.0105 0.0315 306.242913209
0.0115 -0.0315 300.933609052
0.0115 -0.0305 300.466556072
0.0115 -0.0295 300.048000916
0.0115 -0.0285 300.049887752
0.0115 -0.0275 300.051774589
0.0115 -0.0265 300.300032866
0.0115 -0.0255 300.627733632
0.0115 -0.0245 300.757040583
0.0115 -0.0235 300.385944078
0.0115 -0.0225 300.014898712
0.0115 -0.0215 299.478876855
0.0115 -0.0205 298.769883931
0.0115 -0.0195 298.060891007
0.0115 -0.0185 297.556930808
0.0115 -0.0175 297.311164085
0.0115 -0.0165 297.065397362
0.0115 -0.0155 296.826464299
0.0115 -0.0145 296.556721266
0.0115 -0.0135 296.286978234
0.0115 -0.0125 295.540240695
0.0115 -0.0115 294.780483892
0.0115 -0.0105 294.076638748
0.0115 -0.0095 293.752352757
0.0115 -0.0085 293.470076268
0.0115 -0.0075 293.324404797
0.0115 -0.0065 293.410094179
0.0115 -0.0055 293.518672296
0.0115 -0.0045 293.880376124
0.0115 -0.0035 294.502509051
0.0115 -0.0025 295.129477139
0.0115 -0.0015 296.00885442
0.0115 -0.0005 296.587312397
0.0115 0.0005 297.165770374
0.0115 0.0015 297.475647085
0.0115 0.0025 297.70105798
0.0115 0.0035 297.965694064
0.0115 0.0045 299.006608412
0.0115 0.0055 300.1492709
0.0115 0.0065 301.380639977
0.0115 0.0075 303.155337258
0.0115 0.0085 305.093236045
0.0115 0.0095 306.859250176
0.0115 0.0105 307.947677396
0.0115 0.0115 308.9829609
0.0115 0.0125 309.904390519
0.0115 0.0135 310.312691918
0.0115 0.0145 310.689633689
0.0115 0.0155 310.982105547
0.0115 0.0165 310.926787268
0.0115 0.0175 310.87146899
0.0115 0.0185 310.466006381
0.0115 0.0195 309.944505548
0.0115 0.0205 309.324253293
0.0115 0.0215 308.629910913
0.0115 0.0225 307.820398085
0.0115 0.0235 306.940122771
0.0115 0.0245 305.951788333
0.0115 0.0255 305.272424272
0.0115 0.0265 304.810905904
0.0115 0.0275 304.518712209
0.0115 0.0285 304.609489602
0.0115 0.0295 304.692476971
0.0115 0.0305 305.391426951
0.0115 0.0315 306.184798224
0.0125 -0.0315 301.113715928
0.0125 -0.0305 300.610141523
0.0125 -0.0295 300.190220009
0.0125 -0.0285 300.189299462
0.0125 -0.0275 300.173946025
0.0125 -0.0265 300.342485372
0.0125 -0.0255 300.611764833
0.0125 -0.0245 300.748413625
0.0125 -0.0235 300.36542076
0.0125 -0.0225 299.8853273
0.0125 -0.0215 299.191829842
0.0125 -0.0205 298.477595722
0.0125 -0.0195 297.769084574
0.0125 -0.0185 297.450420496
0.0125 -0.0175 297.20554367
0.0125 -0.0165 296.966778698
0.0125 -0.0155 296.819695033
0.0125 -0.0145 296.551884958
0.0125 -0.0135 296.21735141
0.0125 -0.0125 295.593130503
0.0125 -0.0115 294.835348405
0.0125 -0.0105 294.164929892
0.0125 -0.0095 293.809933984
0.0125 -0.0085 293.540625088
0.0125 -0.0075 293.33620824
0.0125 -0.0065 293.423664932
0.0125 -0.0055 293.518625463
0.0125 -0.0045 293.801423693
0.0125 -0.0035 294.457153434
0.0125 -0.0025 295.112883176
0.0125 -0.0015 295.755931244
0.0125 -0.0005 296.365441831
0.0125 0.0005 296.974952417
0.0125 0.0015 297.317173238
0.0125 0.0025 297.542932298
0.0125 0.0035 297.768986113
0.0125 0.0045 298.464163162
0.0125 0.0055 299.607771582
0.0125 0.0065 300.784499716
0.0125 0.0075 302.482218817
0.0125 0.0085 304.414717469
0.0125 0.0095 306.382078325
0.0125 0.0105 307.812845718
0.0125 0.0115 308.849762596
0.0125 0.0125 309.777728806
0.0125 0.0135 310.298704606
0.0125 0.0145 310.665273254
0.0125 0.0155 310.955110029
0.0125 0.0165 311.024752168
0.0125 0.0175 310.961510571
0.0125 0.0185 310.738413731
0.0125 0.0195 310.245810632
0.0125 0.0205 309.603903292
0.0125 0.0215 308.901761388
0.0125 0.0225 308.151570152
0.0125 0.0235 307.239472275
0.0125 0.0245 306.262350976
0.0125 0.0255 305.592589693
0.0125 0.0265 305.077543557
0.0125 0.0275 304.641949274
0.0125 0.0285 304.685600441
0.0125 0.0295 304.765127526
0.0125 0.0305 305.466381995
0.0125 0.0315 306.256723385
0.0135 -0.0315 301.321788342
0.0135 -0.0305 300.81639164
0.0135 -0.0295 300.332421017
0.0135 -0.0285 300.302909918
0.0135 -0.0275 300.287556482
0.0135 -0.0265 300.456484068
0.0135 -0.0255 300.703734428
0.0135 -0.0245 300.671394064
0.0135 -0.0235 300.154350418
0.0135 -0.0225 299.674256958
0.0135 -0.0215 298.949879895
0.0135 -0.0205 298.174274209
0.0135 -0.0195 297.698797999
0.0135 -0.0185 297.371591449
0.0135 -0.0175 297.093638092
0.0135 -0.0165 296.923038816
0.0135 -0.0155 296.804488374
0.0135 -0.0145 296.609073395
0.0135 -0.0135 296.118478273
0.0135 -0.0125 295.578112245
0.0135 -0.0115 294.873281803
0.0135 -0.0105 294.31959809
0.0135 -0.0095 293.815860195
0.0135 -0.0085 293.563374823
0.0135 -0.0075 293.357550407
0.0135 -0.0065 293.409719506
0.0135 -0.0055 293.534186492
0.0135 -0.0045 293.737039914
0.0135 -0.0035 294.320655655
0.0135 -0.0025 295.003721074
0.0135 -0.0015 295.678017965
0.0135 -0.0005 296.318823438
0.0135 0.0005 296.864762587
0.0135 0.0015 297.120459715
0.0135 0.0025 297.359058298
0.0135 0.0035 297.649187058
0.0135 0.0045 297.993808164
0.0135 0.0055 299.011928543
0.0135 0.0065 300.31325087
0.0135 0.0075 301.668845557
0.0135 0.0085 303.592618559
0.0135 0.0095 305.643226409
0.0135 0.0105 307.695648227
0.0135 0.0115 308.732565105
0.0135 0.0125 309.489798304
0.0135 0.0135 310.246227255
0.0135 0.0145 310.589269205
0.0135 0.0155 310.834509693
0.0135 0.0165 311.076954545
0.0135 0.0175 310.924244472
0.0135 0.0185 310.701147632
0.0135 0.0195 310.478051639
0.0135 0.0205 309.834595862
0.0135 0.0215 309.085287451
0.0135 0.0225 308.330894045
0.0135 0.0235 307.418796168
0.0135 0.0245 306.501345644
0.0135 0.0255 305.789793661
0.0135 0.0265 305.213486636
0.0135 0.0275 304.781153919
0.0135 0.0285 304.824805087
0.0135 0.0295 304.859654453
0.0135 0.0305 305.536238638
0.0135 0.0315 306.326190465
0.0145 -0.0315 301.514629815
0.0145 -0.0305 300.973506891
0.0145 -0.0295 300.483777432
0.0145 -0.0285 300.445190982
0.0145 -0.0275 300.406604532
0.0145 -0.0265 300.525214843
0.0145 -0.0255 300.701386544
0.0145 -0.0245 300.646656259
0.0145 -0.0235 300.042007568
0.0145 -0.0225 299.463186616
0.0145 -0.0215 298.735000041
0.0145 -0.0205 298.009604921
0.0145 -0.0195 297.586156548
0.0145 -0.0185 297.279907975
0.0145 -0.0175 296.997705467
0.0145 -0.0165 296.878746795
0.0145 -0.0155 296.759788124
0.0145 -0.0145 296.603332731
0.0145 -0.0135 296.100813233
0.0145 -0.0125 295.555487502
0.0145 -0.0115 294.98115878
0.0145 -0.0105 294.429216287
0.0145 -0.0095 293.877273794
0.0145 -0.0085 293.605363253
0.0145 -0.0075 293.403797658
0.0145 -0.0065 293.416129555
0.0145 -0.0055 293.525352321
0.0145 -0.0045 293.741303163
0.0145 -0.0035 294.208783359
0.0145 -0.0025 294.901828461
0.0145 -0.0015 295.575151905
0.0145 -0.0005 296.242895895
0.0145 0.0005 296.677143759
0.0145 0.0015 296.934375668
0.0145 0.0025 297.184444011
0.0145 0.0035 297.52229532
0.0145 0.0045 297.868013465
0.0145 0.0055 298.474461348
0.0145 0.0065 299.829751022
0.0145 0.0075 301.185040695
0.0145 0.0085 302.832701697
0.0145 0.0095 304.901481065
0.0145 0.0105 306.970260434
0.0145 0.0115 308.451084129
0.0145 0.0125 309.209331985
0.0145 0.0135 309.96757984
0.0145 0.0145 310.431979339
0.0145 0.0155 310.667391191
0.0145 0.0165 310.889932002
0.0145 0.0175 310.88701485
0.0145 0.0185 310.663924725
0.0145 0.0195 310.375141579
0.0145 0.0205 309.85055607
0.0145 0.0215 309.219064036
0.0145 0.0225 308.510217938
0.0145 0.0235 307.547479717
0.0145 0.0245 306.560732242
0.0145 0.0255 305.856670165
0.0145 0.0265 305.323693391
0.0145 0.0275 304.918867213
0.0145 0.0285 304.944455362
0.0145 0.0295 304.970043511
0.0145 0.0305 305.640836818
0.0145 0.0315 306.406129047
0.0155 -0.0315 301.683215109
0.0155 -0.0305 301.125046682
0.0155 -0.0295 300.635133846
0.0155 -0.0285 300.594682535
0.0155 -0.0275 300.549738277
0.0155 -0.0265 300.596810615
0.0155 -0.0255 300.693020176
0.0155 -0.0245 300.621918454
0.0155 -0.0235 299.971734105
0.0155 -0.0225 299.263276083
0.0155 -0.0215 298.59706278
0.0155 -0.0205 297.894841569
0.0155 -0.0195 297.433841253
0.0155 -0.0185 297.170908113
0.0155 -0.0175 296.947581803
0.0155 -0.0165 296.831705681
0.0155 -0.0155 296.71307452
0.0155 -0.0145 296.509065621
0.0155 -0.0135 296.198701422
0.0155 -0.0125 295.645777494
0.0155 -0.0115 295.034897113
0.0155 -0.0105 294.456371587
0.0155 -0.0095 293.982817171
0.0155 -0.0085 293.601582186
0.0155 -0.0075 293.454819449
0.0155 -0.0065 293.434550401
0.0155 -0.0055 293.502289815
0.0155 -0.0045 293.736099115
0.0155 -0.0035 294.056211673
0.0155 -0.0025 294.768899072
0.0155 -0.0015 295.490539592
0.0155 -0.0005 296.152801861
0.0155 0.0005 296.626596484
0.0155 0.0015 296.890879889
0.0155 0.0025 297.093991835
0.0155 0.0035 297.329515005
0.0155 0.0045 297.67523315
0.0155 0.0055 298.123554279
0.0155 0.0065 299.192606571
0.0155 0.0075 300.563046065
0.0155 0.0085 302.156908802
0.0155 0.0095 304.137786284
0.0155 0.0105 306.159260078
0.0155 0.0115 308.000159073
0.0155 0.0125 308.951252693
0.0155 0.0135 309.623711071
0.0155 0.0145 310.140487982
0.0155 0.0155 310.454859948
0.0155 0.0165 310.609664172
0.0155 0.0175 310.700911276
0.0155 0.0185 310.591636954
0.0155 0.0195 310.254907751
0.0155 0.0205 309.781024932
0.0155 0.0215 309.136835655
0.0155 0.0225 308.433778753
0.0155 0.0235 307.569189109
0.0155 0.0245 306.62011884
0.0155 0.0255 305.917888541
0.0155 0.0265 305.39815433
0.0155 0.0275 305.016852526
0.0155 0.0285 305.05214707
0.0155 0.0295 305.08043257
0.0155 0.0305 305.752092932
0.0155 0.0315 306.5354127
0.0165 -0.0315 301.861606172
0.0165 -0.0305 301.303437745
0.0165 -0.0295 300.783271196
0.0165 -0.0285 300.73552418
0.0165 -0.0275 300.690579922
0.0165 -0.0265 300.738614126
0.0165 -0.0255 300.800565512
0.0165 -0.0245 300.50639347
0.0165 -0.0235 299.758029612
0.0165 -0.0225 299.04957159
0.0165 -0.0215 298.383385735
0.0165 -0.0205 297.732790677
0.0165 -0.0195 297.35587598
0.0165 -0.0185 297.121271894
0.0165 -0.0175 296.897241291
0.0165 -0.0165 296.781365169
0.0165 -0.0155 296.67322707
0.0165 -0.0145 296.432172672
0.0165 -0.0135 296.182591401