% Model:              SIMBench260525.mph
% Version:            COMSOL 6.2.0.339
% Date:               May 27 2026, 17:29
% Dimension:          2
% Nodes:              4096
% Expressions:        1
% Description:        温度
% Length unit:        m
% x                       y                        T (K)
5.0E-4                    -0.0315                  379.9170470546233
5.0E-4                    -0.0305                  378.2419632017947
5.0E-4                    -0.0295                  376.55651121742324
5.0E-4                    -0.0285                  373.12846429283525
5.0E-4                    -0.0275                  369.30661096625516
5.0E-4                    -0.0265                  365.4312128879087
5.0E-4                    -0.0255                  361.1404910210442
5.0E-4                    -0.0245                  357.221028068048
5.0E-4                    -0.0235                  353.42810342957443
5.0E-4                    -0.0225                  350.469400183333
5.0E-4                    -0.0215                  347.7393570823071
5.0E-4                    -0.0205                  345.28536297080456
5.0E-4                    -0.0195                  343.54357805319984
5.0E-4                    -0.0185                  341.84978912013815
5.0E-4                    -0.0175                  340.3984138794233
5.0E-4                    -0.0165                  339.25979066748585
5.0E-4                    -0.0155                  338.12132581569716
5.0E-4                    -0.0145                  337.1791743321963
5.0E-4                    -0.0135                  336.2685229624818
5.0E-4                    -0.0125                  335.3511279989387
5.0E-4                    -0.0115                  334.6306627006555
5.0E-4                    -0.0105                  333.77731982565376
5.0E-4                    -0.0095                  332.92397695065216
5.0E-4                    -0.0085                  332.3236442494582
5.0E-4                    -0.0075                  331.5038111819248
5.0E-4                    -0.0065                  330.6839781143915
5.0E-4                    -0.0055                  330.2064486288232
5.0E-4                    -0.0045                  329.40711979979403
5.0E-4                    -0.0035                  328.64394854128057
5.0E-4                    -0.0025                  328.2255699821251
5.0E-4                    -0.0015                  327.44182906777974
5.0E-4                    -5.0E-4                  326.76767483396435
5.0E-4                    5.0E-4                   326.1811715845668
5.0E-4                    0.0015                   325.2821900808094
5.0E-4                    0.0025                   324.4920577846797
5.0E-4                    0.0035                   323.0400050705606
5.0E-4                    0.0045                   321.1927983322518
5.0E-4                    0.0055                   319.4615847138404
5.0E-4                    0.0065                   312.93950667076876
5.0E-4                    0.0075                   305.37411270197185
5.0E-4                    0.0085                   297.9128415247926
5.0E-4                    0.0095                   296.67041592920725
5.0E-4                    0.0105                   295.74794099036353
5.0E-4                    0.0115                   294.3002888482781
5.0E-4                    0.0125                   294.29367369176396
5.0E-4                    0.0135                   294.28705853524986
5.0E-4                    0.0145                   293.46820082403156
5.0E-4                    0.0155                   293.2758959455818
5.0E-4                    0.0165                   293.2433509424762
5.0E-4                    0.0175                   293.36865195293245
5.0E-4                    0.0185                   293.79780936312295
5.0E-4                    0.0195                   293.80996821041805
5.0E-4                    0.0205                   293.82212705771315
5.0E-4                    0.0215                   294.75256942379383
5.0E-4                    0.0225                   295.3238414215648
5.0E-4                    0.0235                   296.9204120516023
5.0E-4                    0.0245                   303.0066972474816
5.0E-4                    0.0255                   309.39943283716184
5.0E-4                    0.0265                   314.71320694535785
5.0E-4                    0.0275                   320.31699369722935
5.0E-4                    0.0285                   326.23543925608067
5.0E-4                    0.0295                   330.4645643074746
5.0E-4                    0.0305                   332.7565576716802
5.0E-4                    0.0315                   335.04855103588585
0.0015                    -0.0315                  379.0291457323781
0.0015                    -0.0305                  377.85179671494234
0.0015                    -0.0295                  375.52309314684044
0.0015                    -0.0285                  371.87448654209135
0.0015                    -0.0275                  368.1328606713591
0.0015                    -0.0265                  363.7738942122316
0.0015                    -0.0255                  359.1990831311548
0.0015                    -0.0245                  355.14886562867457
0.0015                    -0.0235                  351.77242430713386
0.0015                    -0.0225                  348.50658810568757
0.0015                    -0.0215                  345.7603059445407
0.0015                    -0.0205                  343.8584098120848
0.0015                    -0.0195                  342.02063292539367
0.0015                    -0.0185                  340.3610545597813
0.0015                    -0.0175                  339.22169003439245
0.0015                    -0.0165                  338.08252518375735
0.0015                    -0.0155                  337.00727107184196
0.0015                    -0.0145                  336.21929246338004
0.0015                    -0.0135                  335.38683645886346
0.0015                    -0.0125                  334.56245886152414
0.0015                    -0.0115                  333.96075038855616
0.0015                    -0.0105                  333.24145358614913
0.0015                    -0.0095                  332.55601421210196
0.0015                    -0.0085                  332.1082673028635
0.0015                    -0.0075                  331.4404554825674
0.0015                    -0.0065                  330.91741119969555
0.0015                    -0.0055                  330.6507776487981
0.0015                    -0.0045                  330.0027409662365
0.0015                    -0.0035                  329.6499797177446
0.0015                    -0.0025                  329.52684062669596
0.0015                    -0.0015                  328.84828404297525
0.0015                    -5.0E-4                  328.54695737057045
0.0015                    5.0E-4                   328.37783325762723
0.0015                    0.0015                   327.5039647784315
0.0015                    0.0025                   326.9315308975572
0.0015                    0.0035                   326.2697862318175
0.0015                    0.0045                   324.4350006241399
0.0015                    0.0055                   322.85624046907986
0.0015                    0.0065                   319.9174527308927
0.0015                    0.0075                   312.39297749507557
0.0015                    0.0085                   305.0085499541942
0.0015                    0.0095                   299.8952467441066
0.0015                    0.0105                   298.4135557604087
0.0015                    0.0115                   296.2992255710782
0.0015                    0.0125                   295.7812552634328
0.0015                    0.0135                   294.6061845060657
0.0015                    0.0145                   293.65716752337033
0.0015                    0.0155                   293.32468212977784
0.0015                    0.0165                   293.2891991176346
0.0015                    0.0175                   293.5038001226762
0.0015                    0.0185                   294.13154887886367
0.0015                    0.0195                   294.57667134820593
0.0015                    0.0205                   295.1443481898317
0.0015                    0.0215                   296.4383164551399
0.0015                    0.0225                   297.14435318625783
0.0015                    0.0235                   301.7845203547334
0.0015                    0.0245                   307.4291982074879
0.0015                    0.0255                   313.5078083386181
0.0015                    0.0265                   317.4649114400461
0.0015                    0.0275                   322.0471120864731
0.0015                    0.0285                   327.5447068159902
0.0015                    0.0295                   330.64038816656944
0.0015                    0.0305                   333.28390636279636
0.0015                    0.0315                   334.74575579959367
0.0025                    -0.0315                  378.1412444101328
0.0025                    -0.0305                  376.4760971717732
0.0025                    -0.0295                  373.9354132583194
0.0025                    -0.0285                  370.3311987638357
0.0025                    -0.0275                  366.1040509283494
0.0025                    -0.0265                  361.5485864141624
0.0025                    -0.0255                  357.0722740020918
0.0025                    -0.0245                  353.12863558341814
0.0025                    -0.0235                  349.8893073241325
0.0025                    -0.0225                  346.64997906484695
0.0025                    -0.0215                  344.25315691487606
0.0025                    -0.0205                  342.4008236873981
0.0025                    -0.0195                  340.5484904599201
0.0025                    -0.0185                  339.25331869460354
0.0025                    -0.0175                  338.11252746065475
0.0025                    -0.0165                  336.97173622670596
0.0025                    -0.0155                  336.1773844294004
0.0025                    -0.0145                  335.3864398110634
0.0025                    -0.0135                  334.5954951927264
0.0025                    -0.0125                  334.0415754511306
0.0025                    -0.0115                  333.4374953394632
0.0025                    -0.0105                  332.8479157391105
0.0025                    -0.0095                  332.46293198877186
0.0025                    -0.0085                  332.0141066788475
0.0025                    -0.0075                  331.66729137072986
0.0025                    -0.0065                  331.40770071877364
0.0025                    -0.0055                  331.140591282636
0.0025                    -0.0045                  330.9893756567845
0.0025                    -0.0035                  330.8660143371765
0.0025                    -0.0025                  330.7426530175686
0.0025                    -0.0015                  330.64169742115837
0.0025                    -5.0E-4                  330.47241367376114
0.0025                    5.0E-4                   330.3031299263639
0.0025                    0.0015                   329.92537617888706
0.0025                    0.0025                   329.38593544554726
0.0025                    0.0035                   328.84649471220746
0.0025                    0.0045                   327.6109490106888
0.0025                    0.0055                   326.00292585033765
0.0025                    0.0065                   324.3949026899864
0.0025                    0.0075                   318.98257947795906
0.0025                    0.0085                   311.4925756222643
0.0025                    0.0095                   304.24201907457063
0.0025                    0.0105                   301.3644381364148
0.0025                    0.0115                   299.2423937630823
0.0025                    0.0125                   296.2243220153249
0.0025                    0.0135                   294.86472226649863
0.0025                    0.0145                   293.84613422270905
0.0025                    0.0155                   293.4523095745644
0.0025                    0.0165                   293.39705245492837
0.0025                    0.0175                   293.6389482924198
0.0025                    0.0185                   294.3449257239454
0.0025                    0.0195                   295.1638438075854
0.0025                    0.0205                   296.78168481319983
0.0025                    0.0215                   298.0985335260001
0.0025                    0.0225                   300.9739399773561
0.0025                    0.0235                   306.5116154344589
0.0025                    0.0245                   312.0492908915617
0.0025                    0.0255                   316.094347734102
0.0025                    0.0265                   320.1754622858485
0.0025                    0.0275                   324.17371903616214
0.0025                    0.0285                   327.6031910170956
0.0025                    0.0295                   330.5340460868932
0.0025                    0.0305                   332.9325874130218
0.0025                    0.0315                   334.4064201486858
0.0035                    -0.0315                  376.26318531186575
0.0035                    -0.0305                  374.25552594089316
0.0035                    -0.0295                  372.1233757380161
0.0035                    -0.0285                  368.22907103016735
0.0035                    -0.0275                  363.10776339660447
0.0035                    -0.0265                  358.1910397489539
0.0035                    -0.0255                  353.85783836108743
0.0035                    -0.0245                  350.4354381664982
0.0035                    -0.0235                  347.1246755599271
0.0035                    -0.0225                  344.2049261182476
0.0035                    -0.0215                  342.5825000247655
0.0035                    -0.0205                  340.7855410375306
0.0035                    -0.0195                  339.2667676721563
0.0035                    -0.0185                  338.4829716939629
0.0035                    -0.0175                  337.3803754604056
0.0035                    -0.0165                  336.54303376709606
0.0035                    -0.0155                  336.11110646182874
0.0035                    -0.0145                  335.32016184349175
0.0035                    -0.0135                  334.8363820465016
0.0035                    -0.0125                  334.57738445648795
0.0035                    -0.0115                  333.9733043448205
0.0035                    -0.0105                  333.7611994366112
0.0035                    -0.0095                  333.6566199753561
0.0035                    -0.0085                  333.2077946654318
0.0035                    -0.0075                  333.29110992556093
0.0035                    -0.0065                  333.3500242769155
0.0035                    -0.0055                  333.08291484077785
0.0035                    -0.0045                  333.37194142820476
0.0035                    -0.0035                  333.49257583311294
0.0035                    -0.0025                  333.369214513505
0.0035                    -0.0015                  333.4570494070366
0.0035                    -5.0E-4                  333.38331063795914
0.0035                    5.0E-4                   333.1544821331583
0.0035                    0.0015                   332.5024644129022
0.0035                    0.0025                   331.9360299942668
0.0035                    0.0035                   331.1167391433725
0.0035                    0.0045                   329.5670520877917
0.0035                    0.0055                   327.9651156807559
0.0035                    0.0065                   326.1660754706388
0.0035                    0.0075                   323.9283244820782
0.0035                    0.0085                   316.4383206263834
0.0035                    0.0095                   310.10991745450724
0.0035                    0.0105                   305.51455675586345
0.0035                    0.0115                   302.52380943498514
0.0035                    0.0125                   296.84872300667945
0.0035                    0.0135                   295.13598991729646
0.0035                    0.0145                   294.1358934421836
0.0035                    0.0155                   293.48414817640315
0.0035                    0.0165                   293.4543288854587
0.0035                    0.0175                   293.943405998265
0.0035                    0.0185                   294.66368879450863
0.0035                    0.0195                   296.7991759937835
0.0035                    0.0205                   299.7933593737382
0.0035                    0.0215                   301.11288261164583
0.0035                    0.0225                   305.39030858587535
0.0035                    0.0235                   310.5794352006191
0.0035                    0.0245                   314.6396837318638
0.0035                    0.0255                   317.36290407136886
0.0035                    0.0265                   321.44401862311537
0.0035                    0.0275                   323.592748337323
0.0035                    0.0285                   326.84696639527704
0.0035                    0.0295                   329.99338311704025
0.0035                    0.0305                   332.24933512799504
0.0035                    0.0315                   333.64770407971474
0.0045                    -0.0315                  374.52835898650704
0.0045                    -0.0305                  372.3716057843436
0.0045                    -0.0295                  370.2091291977338
0.0045                    -0.0285                  365.24227101741997
0.0045                    -0.0275                  360.1197099760684
0.0045                    -0.0265                  354.99714893471685
0.0045                    -0.0255                  351.197938629694
0.0045                    -0.0245                  347.77553843510486
0.0045                    -0.0235                  344.36004379572165
0.0045                    -0.0225                  342.4502031086
0.0045                    -0.0215                  340.827777015118
0.0045                    -0.0205                  339.17025838766307
0.0045                    -0.0195                  338.32015861820474
0.0045                    -0.0185                  337.53636264001136
0.0045                    -0.0175                  336.6834463863926
0.0045                    -0.0165                  336.25621773838856
0.0045                    -0.0155                  335.82898909038454
0.0045                    -0.0145                  335.3366695523084
0.0045                    -0.0135                  335.1309731763487
0.0045                    -0.0125                  334.9252768003888
0.0045                    -0.0115                  334.66042487809403
0.0045                    -0.0105                  334.67448313411194
0.0045                    -0.0095                  334.68854139012984
0.0045                    -0.0085                  334.65639723723706
0.0045                    -0.0075                  334.91492848039195
0.0045                    -0.0065                  335.1734597235469
0.0045                    -0.0055                  335.3318035191669
0.0045                    -0.0045                  335.7003989010675
0.0045                    -0.0035                  336.0689942829682
0.0045                    -0.0025                  336.1239247658739
0.0045                    -0.0015                  336.2120082138348
0.0045                    -5.0E-4                  336.29420760215714
0.0045                    5.0E-4                   335.7721137370865
0.0045                    0.0015                   335.1200960168303
0.0045                    0.0025                   334.4861245429863
0.0045                    0.0035                   333.04425225420715
0.0045                    0.0045                   331.4945651986264
0.0045                    0.0055                   329.88847371554357
0.0045                    0.0065                   327.8857971024712
0.0045                    0.0075                   325.88312048939883
0.0045                    0.0085                   321.9514393303871
0.0045                    0.0095                   315.97781583444385
0.0045                    0.0105                   310.00419233850056
0.0045                    0.0115                   304.6231447169655
0.0045                    0.0125                   298.94805828865987
0.0045                    0.0135                   295.55442868786827
0.0045                    0.0145                   294.6658570026075
0.0045                    0.0155                   293.7090783990649
0.0045                    0.0165                   293.7272559737473
0.0045                    0.0175                   294.3675704883562
0.0045                    0.0185                   295.0601199495691
0.0045                    0.0195                   298.6249797359537
0.0045                    0.0205                   302.1898395223381
0.0045                    0.0215                   305.8269033950492
0.0045                    0.0225                   310.10432936927873
0.0045                    0.0235                   314.4199679311412
0.0045                    0.0245                   316.5717981793616
0.0045                    0.0255                   318.59288337585735
0.0045                    0.0265                   320.39060252037746
0.0045                    0.0275                   322.166555522967
0.0045                    0.0285                   325.5496374585724
0.0045                    0.0295                   329.11821690517115
0.0045                    0.0305                   331.28284740098024
0.0045                    0.0315                   332.3982944219334
0.0055                    -0.0315                  372.79353266114833
0.0055                    -0.0305                  370.4624543225233
0.0055                    -0.0295                  368.05133406731784
0.0055                    -0.0285                  362.4554186975251
0.0055                    -0.0275                  357.3247892442314
0.0055                    -0.0265                  352.74478928547046
0.0055                    -0.0255                  349.01648035253254
0.0055                    -0.0245                  345.55723334474186
0.0055                    -0.0235                  342.933355069872
0.0055                    -0.0225                  341.4438138222413
0.0055                    -0.0215                  339.8232303234457
0.0055                    -0.0205                  338.85011326043673
0.0055                    -0.0195                  338.2019189413551
0.0055                    -0.0185                  337.40961667428627
0.0055                    -0.0175                  337.07971503374324
0.0055                    -0.0165                  336.755251982864
0.0055                    -0.0155                  336.32172211301616
0.0055                    -0.0145                  336.29060462174544
0.0055                    -0.0135                  336.14158716617055
0.0055                    -0.0125                  335.9306698464115
0.0055                    -0.0115                  336.0820299996735
0.0055                    -0.0105                  336.1102567960216
0.0055                    -0.0095                  336.1229138231825
0.0055                    -0.0085                  336.47213376912
0.0055                    -0.0075                  336.7305528457093
0.0055                    -0.0065                  337.0031429256927
0.0055                    -0.0055                  337.4125317593564
0.0055                    -0.0045                  337.7811711283142
0.0055                    -0.0035                  338.07429064393114
0.0055                    -0.0025                  338.1102001162201
0.0055                    -0.0015                  338.19826652089085
0.0055                    -5.0E-4                  337.95388860493784
0.0055                    5.0E-4                   337.1566204805915
0.0055                    0.0015                   336.49268080562956
0.0055                    0.0025                   335.2417053592694
0.0055                    0.0035                   333.55120673622355
0.0055                    0.0045                   331.96898000803895
0.0055                    0.0055                   329.59787403840625
0.0055                    0.0065                   327.3399030236253
0.0055                    0.0075                   325.2440968678496
0.0055                    0.0085                   322.67746674023016
0.0055                    0.0095                   316.85806766742166
0.0055                    0.0105                   310.81171679824456
0.0055                    0.0115                   304.86378974563996
0.0055                    0.0125                   299.275315667035
0.0055                    0.0135                   295.54308819331374
0.0055                    0.0145                   294.4396230676752
0.0055                    0.0155                   293.6960813974136
0.0055                    0.0165                   293.66419053802304
0.0055                    0.0175                   294.30450505263207
0.0055                    0.0185                   296.2427439857383
0.0055                    0.0195                   299.5301896314007
0.0055                    0.0205                   303.16768726546843
0.0055                    0.0215                   307.13725759874745
0.0055                    0.0225                   311.3975871837517
0.0055                    0.0235                   313.3237993462079
0.0055                    0.0245                   314.7899297450097
0.0055                    0.0255                   316.7078906318328
0.0055                    0.0265                   318.77276570344446
0.0055                    0.0275                   320.7403627086109
0.0055                    0.0285                   323.9036039120962
0.0055                    0.0295                   326.8615908801679
0.0055                    0.0305                   329.1666629494732
0.0055                    0.0315                   331.12442148824175
0.0065                    -0.0315                  370.8565682236051
0.0065                    -0.0305                  368.36612758106236
0.0065                    -0.0295                  365.6824086612108
0.0065                    -0.0285                  360.08649329141815
0.0065                    -0.0275                  354.5882816593428
0.0065                    -0.0265                  350.754746130598
0.0065                    -0.0255                  346.9212106018532
0.0065                    -0.0245                  343.3880322455666
0.0065                    -0.0235                  341.9476237357792
0.0065                    -0.0225                  340.5561065042099
0.0065                    -0.0215                  339.2094914186111
0.0065                    -0.0205                  338.72538173734887
0.0065                    -0.0195                  338.24127205608664
0.0065                    -0.0185                  337.668456165022
0.0065                    -0.0175                  337.5732641787316
0.0065                    -0.0165                  337.45792261578146
0.0065                    -0.0155                  337.2190257412495
0.0065                    -0.0145                  337.31949068604877
0.0065                    -0.0135                  337.3588873897064
0.0065                    -0.0125                  337.34472702134974
0.0065                    -0.0115                  337.5577280418467
0.0065                    -0.0105                  337.70739886743445
0.0065                    -0.0095                  337.92257428731625
0.0065                    -0.0085                  338.2881040377324
0.0065                    -0.0075                  338.606647497117
0.0065                    -0.0065                  338.97579607805335
0.0065                    -0.0055                  339.3934010761592
0.0065                    -0.0045                  339.78350023278284
0.0065                    -0.0035                  339.861552910742
0.0065                    -0.0025                  339.87591799608845
0.0065                    -0.0015                  339.9408886302675
0.0065                    -5.0E-4                  339.0996038784895
0.0065                    5.0E-4                   338.20497675666485
0.0065                    0.0015                   337.37635097105886
0.0065                    0.0025                   335.5399488000086
0.0065                    0.0035                   333.70354662895824
0.0065                    0.0045                   331.7466118266839
0.0065                    0.0055                   329.06605453600343
0.0065                    0.0065                   326.47164546734336
0.0065                    0.0075                   324.09423880425254
0.0065                    0.0085                   321.5181557763182
0.0065                    0.0095                   317.3105448908366
0.0065                    0.0105                   311.0962086304837