% Model:              SIMBench260525.mph
% Version:            COMSOL 6.2.0.339
% Date:               May 27 2026, 17:45
% Dimension:          2
% Nodes:              4096
% Expressions:        1
% Description:        温度
% Length unit:        m
% x                       y                        T (K)
5.0E-4                    -0.0315                  340.17834475969926
5.0E-4                    -0.0305                  338.6981399914242
5.0E-4                    -0.0295                  337.20679435509186
5.0E-4                    -0.0285                  334.2954359648457
5.0E-4                    -0.0275                  331.1853888359537
5.0E-4                    -0.0265                  328.0753417070616
5.0E-4                    -0.0255                  324.76165116515324
5.0E-4                    -0.0245                  321.9495631004131
5.0E-4                    -0.0235                  319.2308687779854
5.0E-4                    -0.0225                  317.9033498912735
5.0E-4                    -0.0215                  316.3994487823319
5.0E-4                    -0.0205                  315.0340221147742
5.0E-4                    -0.0195                  314.3737363083974
5.0E-4                    -0.0185                  313.4874400129129
5.0E-4                    -0.0175                  312.7539015241321
5.0E-4                    -0.0165                  312.20043453339076
5.0E-4                    -0.0155                  311.34731849494426
5.0E-4                    -0.0145                  310.7382624063439
5.0E-4                    -0.0135                  310.23259680815215
5.0E-4                    -0.0125                  309.45133980017886
5.0E-4                    -0.0115                  308.9789506317093
5.0E-4                    -0.0105                  308.4925795422573
5.0E-4                    -0.0095                  307.79648203430895
5.0E-4                    -0.0085                  307.34579980149516
5.0E-4                    -0.0075                  306.5913328556521
5.0E-4                    -0.0065                  305.6893938462282
5.0E-4                    -0.0055                  304.84256739555576
5.0E-4                    -0.0045                  303.18037751856394
5.0E-4                    -0.0035                  301.40766702954227
5.0E-4                    -0.0025                  299.38885306257134
5.0E-4                    -0.0015                  297.91270354139715
5.0E-4                    -5.0E-4                  296.460861714442
5.0E-4                    5.0E-4                   294.07735860755105
5.0E-4                    0.0015                   293.8808079807875
5.0E-4                    0.0025                   293.68425735402406
5.0E-4                    0.0035                   293.502181163457
5.0E-4                    0.0045                   293.5585371230411
5.0E-4                    0.0055                   293.61489308262514
5.0E-4                    0.0065                   293.29656265435267
5.0E-4                    0.0075                   293.2079640433813
5.0E-4                    0.0085                   293.2011432176731
5.0E-4                    0.0095                   293.2753360879726
5.0E-4                    0.0105                   293.4889607115389
5.0E-4                    0.0115                   293.42320481242587
5.0E-4                    0.0125                   293.3574489133128
5.0E-4                    0.0135                   293.37055427478765
5.0E-4                    0.0145                   293.40109933192923
5.0E-4                    0.0155                   293.75040271236634
5.0E-4                    0.0165                   294.3536726760176
5.0E-4                    0.0175                   294.7443949381636
5.0E-4                    0.0185                   295.7970840710301
5.0E-4                    0.0195                   297.3213402541663
5.0E-4                    0.0205                   298.84360650677826
5.0E-4                    0.0215                   299.76217968914466
5.0E-4                    0.0225                   300.8329315975319
5.0E-4                    0.0235                   301.8287618373246
5.0E-4                    0.0245                   302.49534225971576
5.0E-4                    0.0255                   303.6658056674188
5.0E-4                    0.0265                   304.6269753552867
5.0E-4                    0.0275                   306.3713216905624
5.0E-4                    0.0285                   308.46833475169433
5.0E-4                    0.0295                   310.5429506888047
5.0E-4                    0.0305                   312.13337494904226
5.0E-4                    0.0315                   313.7237992092798
0.0015                    -0.0315                  339.07142547730996
0.0015                    -0.0305                  337.99459073531426
0.0015                    -0.0295                  335.97411454804194
0.0015                    -0.0285                  332.72157242768486
0.0015                    -0.0275                  329.5429691676031
0.0015                    -0.0265                  326.1312158066793
0.0015                    -0.0255                  322.5518910882124
0.0015                    -0.0245                  319.51021782983116
0.0015                    -0.0235                  317.84804560839297
0.0015                    -0.0225                  316.65117897404446
0.0015                    -0.0215                  315.2040638016487
0.0015                    -0.0205                  314.5282261235273
0.0015                    -0.0195                  314.09718929192417
0.0015                    -0.0185                  313.2585652060811
0.0015                    -0.0175                  313.0029923089854
0.0015                    -0.0165                  312.86397925270467
0.0015                    -0.0155                  312.0309143793235
0.0015                    -0.0145                  311.97737142458095
0.0015                    -0.0135                  311.96102302951545
0.0015                    -0.0125                  311.17976602154215
0.0015                    -0.0115                  311.2579264057936
0.0015                    -0.0105                  311.25164354884964
0.0015                    -0.0095                  310.5865447178447
0.0015                    -0.0085                  310.4634605180204
0.0015                    -0.0075                  310.18367342463114
0.0015                    -0.0065                  309.29568118626287
0.0015                    -0.0055                  308.5030800528159
0.0015                    -0.0045                  307.43889653664314
0.0015                    -0.0035                  305.58021677514
0.0015                    -0.0025                  303.38348453123024
0.0015                    -0.0015                  301.4576247817192
0.0015                    -5.0E-4                  299.48079817831047
0.0015                    5.0E-4                   296.4506990528927
0.0015                    0.0015                   294.69335890725904
0.0015                    0.0025                   294.4619957008123
0.0015                    0.0035                   294.19811997166994
0.0015                    0.0045                   294.18603904114997
0.0015                    0.0055                   293.7694093507416
0.0015                    0.0065                   293.40355443594194
0.0015                    0.0075                   293.23104775633243
0.0015                    0.0085                   293.22269773941053
0.0015                    0.0095                   293.34888340465926
0.0015                    0.0105                   293.6701410202539
0.0015                    0.0115                   293.86357161010926
0.0015                    0.0125                   293.82824344929094
0.0015                    0.0135                   293.829261544633
0.0015                    0.0145                   293.8547372164066
0.0015                    0.0155                   294.84155724343503
0.0015                    0.0165                   295.86992261009675
0.0015                    0.0175                   296.4560717957079
0.0015                    0.0185                   298.0404431836515
0.0015                    0.0195                   299.59973179550167
0.0015                    0.0205                   300.7401706702412
0.0015                    0.0215                   301.40468034580516
0.0015                    0.0225                   302.3554513426008
0.0015                    0.0235                   302.7357913465569
0.0015                    0.0245                   302.9101084466294
0.0015                    0.0255                   304.050348416381
0.0015                    0.0265                   304.62315410253007
0.0015                    0.0275                   305.6621669860935
0.0015                    0.0285                   307.7551996013806
0.0015                    0.0295                   309.82442872858155
0.0015                    0.0305                   311.6327203969775
0.0015                    0.0315                   313.1054077185997
0.0025                    -0.0315                  337.9645061949206
0.0025                    -0.0305                  336.3299597684544
0.0025                    -0.0295                  333.98668853628067
0.0025                    -0.0285                  330.81703617889843
0.0025                    -0.0275                  327.5304858769419
0.0025                    -0.0265                  323.98679841870404
0.0025                    -0.0255                  320.4345648450602
0.0025                    -0.0245                  317.92018944491883
0.0025                    -0.0235                  316.6978189987426
0.0025                    -0.0225                  315.4754485525664
0.0025                    -0.0215                  314.69765239943047
0.0025                    -0.0205                  314.2615923362931
0.0025                    -0.0195                  313.8255322731558
0.0025                    -0.0185                  313.7117787169094
0.0025                    -0.0175                  313.56570436249183
0.0025                    -0.0165                  313.41963000807425
0.0025                    -0.0155                  313.55890544722007
0.0025                    -0.0145                  313.5757804638358
0.0025                    -0.0135                  313.59265548045164
0.0025                    -0.0125                  313.78905376557964
0.0025                    -0.0115                  313.87492317389166
0.0025                    -0.0105                  313.9607925822038
0.0025                    -0.0095                  313.9476365330643
0.0025                    -0.0085                  313.82225713993785
0.0025                    -0.0075                  313.6968777468113
0.0025                    -0.0065                  313.0487178957128
0.0025                    -0.0055                  312.2558945602056
0.0025                    -0.0045                  311.46307122469847
0.0025                    -0.0035                  309.57934033291696
0.0025                    -0.0025                  307.3832042189144
0.0025                    -0.0015                  305.1870681049118
0.0025                    -5.0E-4                  302.38339676161615
0.0025                    5.0E-4                   299.4268739680057
0.0025                    0.0015                   296.35092252853383
0.0025                    0.0025                   295.73399909396414
0.0025                    0.0035                   295.47069554032214
0.0025                    0.0045                   294.416588053341
0.0025                    0.0055                   293.897180509414
0.0025                    0.0065                   293.51054621753127
0.0025                    0.0075                   293.30415282285674
0.0025                    0.0085                   293.2848191549301
0.0025                    0.0095                   293.42243072134585
0.0025                    0.0105                   293.7802482773518
0.0025                    0.0115                   294.1966453833438
0.0025                    0.0125                   294.5570389336189
0.0025                    0.0135                   294.59552928802486
0.0025                    0.0145                   295.3406079751376
0.0025                    0.0155                   296.4453798595262
0.0025                    0.0165                   297.5501517439148
0.0025                    0.0175                   299.0539796884973
0.0025                    0.0185                   300.6377849537665
0.0025                    0.0195                   302.1722973648128
0.0025                    0.0205                   302.87164547243805
0.0025                    0.0215                   303.5317030342287
0.0025                    0.0225                   303.9104992285461
0.0025                    0.0235                   304.028658259467
0.0025                    0.0245                   304.146817290388
0.0025                    0.0255                   304.25364109789524
0.0025                    0.0265                   304.6450775264841
0.0025                    0.0275                   305.19213853592254
0.0025                    0.0285                   307.0185311935934
0.0025                    0.0295                   309.0602832910141
0.0025                    0.0305                   310.9357143425155
0.0025                    0.0315                   312.481329521385
0.0035                    -0.0315                  335.872816304131
0.0035                    -0.0305                  333.6802484421206
0.0035                    -0.0295                  331.6483861476483
0.0035                    -0.0285                  328.41921340646763
0.0035                    -0.0275                  324.9256117456042
0.0035                    -0.0265                  321.4166158383557
0.0035                    -0.0255                  318.02106845450123
0.0035                    -0.0245                  317.37881244624504
0.0035                    -0.0235                  316.44533653686676
0.0035                    -0.0225                  315.30620781753544
0.0035                    -0.0215                  315.4349983812739
0.0035                    -0.0205                  315.2221779322083
0.0035                    -0.0195                  314.94516420838966
0.0035                    -0.0185                  315.71889890395494
0.0035                    -0.0175                  315.86729489618926
0.0035                    -0.0165                  315.9521097637037
0.0035                    -0.0155                  317.03364635972173
0.0035                    -0.0145                  317.31149711375
0.0035                    -0.0135                  317.53983338110095
0.0035                    -0.0125                  318.41302515149727
0.0035                    -0.0115                  318.63159547402483
0.0035                    -0.0105                  318.7362742725328
0.0035                    -0.0095                  318.8828244775691
0.0035                    -0.0085                  318.7824460976512
0.0035                    -0.0075                  318.3534655135672
0.0035                    -0.0065                  317.4285434154756
0.0035                    -0.0055                  316.63360108115864
0.0035                    -0.0045                  315.40089358779886
0.0035                    -0.0035                  313.60551910593995
0.0035                    -0.0025                  311.40938299193743
0.0035                    -0.0015                  309.1417642627141
0.0035                    -5.0E-4                  306.70598781821536
0.0035                    5.0E-4                   303.7494650246049
0.0035                    0.0015                   300.32630459072294
0.0035                    0.0025                   298.2033812603232
0.0035                    0.0035                   297.35691450377277
0.0035                    0.0045                   294.88634711486736
0.0035                    0.0055                   294.14092622940666
0.0035                    0.0065                   293.65691227794184
0.0035                    0.0075                   293.3182448662879
0.0035                    0.0085                   293.32321416202024
0.0035                    0.0095                   293.59234525164106
0.0035                    0.0105                   293.9651333981683
0.0035                    0.0115                   295.07315580251907
0.0035                    0.0125                   296.54165882975303
0.0035                    0.0135                   296.5801491841589
0.0035                    0.0145                   298.61418175767164
0.0035                    0.0155                   300.043716200257
0.0035                    0.0165                   301.3691187226933
0.0035                    0.0175                   303.0878271315244
0.0035                    0.0185                   304.67349252182834
0.0035                    0.0195                   305.79177132160856
0.0035                    0.0205                   306.6271013426403
0.0035                    0.0215                   307.25962975118034
0.0035                    0.0225                   307.07503123163514
0.0035                    0.0235                   307.095091256914
0.0035                    0.0245                   306.8113706141718
0.0035                    0.0255                   306.2007510176267
0.0035                    0.0265                   306.59218744621563
0.0035                    0.0275                   306.25450958130625
0.0035                    0.0285                   306.65829331264695
0.0035                    0.0295                   308.2235793024878
0.0035                    0.0305                   310.05743113100596
0.0035                    0.0315                   311.7431969545263
0.0045                    -0.0315                  334.28093150981726
0.0045                    -0.0305                  331.80769661056786
0.0045                    -0.0295                  329.32864624906165
0.0045                    -0.0285                  325.90246204844595
0.0045                    -0.0275                  322.3907278204259
0.0045                    -0.0265                  318.8789935924059
0.0045                    -0.0255                  317.43386725601306
0.0045                    -0.0245                  316.7916112477569
0.0045                    -0.0235                  316.1493552395008
0.0045                    -0.0225                  315.9271351592629
0.0045                    -0.0215                  316.0559257230014
0.0045                    -0.0205                  316.18276352812336
0.0045                    -0.0195                  316.68814642363975
0.0045                    -0.0185                  317.4618811192051
0.0045                    -0.0175                  318.16888542988676
0.0045                    -0.0165                  319.03990706996706
0.0045                    -0.0155                  320.1214436659852
0.0045                    -0.0145                  321.0472137636643
0.0045                    -0.0135                  321.81704498632524
0.0045                    -0.0125                  322.6902367567215
0.0045                    -0.0115                  323.38826777415795
0.0045                    -0.0105                  323.53114920051183
0.0045                    -0.0095                  323.6776994055481
0.0045                    -0.0085                  323.7364063588699
0.0045                    -0.0075                  322.81148426077834
0.0045                    -0.0065                  321.8865621626867
0.0045                    -0.0055                  320.9339934664236
0.0045                    -0.0045                  319.16930037103936
0.0045                    -0.0035                  317.4046072756551
0.0045                    -0.0025                  315.40802776278565
0.0045                    -0.0015                  313.09462713016876
0.0045                    -5.0E-4                  310.7812264975519
0.0045                    5.0E-4                   307.80670079214605
0.0045                    0.0015                   304.30168665291205
0.0045                    0.0025                   300.79667251367806
0.0045                    0.0035                   298.5078918194818
0.0045                    0.0045                   296.03732443057635
0.0045                    0.0055                   294.40684128187127
0.0045                    0.0065                   293.92402658978494
0.0045                    0.0075                   293.411556741463
0.0045                    0.0085                   293.4801314455282
0.0045                    0.0095                   293.82360860307415
0.0045                    0.0105                   294.1777038479044
0.0045                    0.0115                   296.04136326326005
0.0045                    0.0125                   297.90502267861564
0.0045                    0.0135                   299.6410574328278
0.0045                    0.0145                   301.6795025453889
0.0045                    0.0155                   303.6420525409879
0.0045                    0.0165                   305.329827101612
0.0045                    0.0175                   307.04853551044306
0.0045                    0.0185                   308.4964445954967
0.0045                    0.0195                   309.41124527840435
0.0045                    0.0205                   310.326045961312
0.0045                    0.0215                   310.4785160296736
0.0045                    0.0225                   310.2939175101283
0.0045                    0.0235                   310.1185276744849
0.0045                    0.0245                   309.2121951582457
0.0045                    0.0255                   308.29559880499954
0.0045                    0.0265                   307.7118785710376
0.0045                    0.0275                   307.18686214895905
0.0045                    0.0285                   307.6542066660939
0.0045                    0.0295                   308.2220035289259
0.0045                    0.0305                   309.39881056820485
0.0045                    0.0315                   311.320266120211
0.0055                    -0.0315                  332.6890467155037
0.0055                    -0.0305                  330.17051812422073
0.0055                    -0.0295                  327.6405682972665
0.0055                    -0.0285                  324.2094945060148
0.0055                    -0.0275                  320.70359624118623
0.0055                    -0.0265                  318.28338733151605
0.0055                    -0.0255                  317.66416574395635
0.0055                    -0.0245                  316.95683938566356
0.0055                    -0.0235                  316.6422673591345
0.0055                    -0.0225                  317.0980843030951
0.0055                    -0.0215                  317.22615907413285
0.0055                    -0.0205                  317.9838078288543
0.0055                    -0.0195                  319.2369367464827
0.0055                    -0.0185                  320.00560252702417
0.0055                    -0.0175                  321.26111564978845
0.0055                    -0.0165                  322.71391859660577
0.0055                    -0.0155                  323.7905574448268
0.0055                    -0.0145                  324.85883119248626
0.0055                    -0.0135                  325.8194668680188
0.0055                    -0.0125                  326.69425294909763
0.0055                    -0.0115                  327.03437760123444
0.0055                    -0.0105                  327.10389024454474
0.0055                    -0.0095                  327.2548290948483
0.0055                    -0.0085                  326.4826219491953
0.0055                    -0.0075                  325.4466641281681
0.0055                    -0.0065                  324.5246239368764
0.0055                    -0.0055                  322.4753027359135
0.0055                    -0.0045                  320.5092270526605
0.0055                    -0.0035                  318.6960370002733
0.0055                    -0.0025                  315.81946200584315
0.0055                    -0.0015                  313.3112138872974
0.0055                    -5.0E-4                  310.9085445565773
0.0055                    5.0E-4                   308.77495919661976
0.0055                    0.0015                   305.25141639546507
0.0055                    0.0025                   301.8350968111942
0.0055                    0.0035                   298.92475096259585
0.0055                    0.0045                   296.4612721957525
0.0055                    0.0055                   294.50204224600157
0.0055                    0.0065                   293.81727640901335
0.0055                    0.0075                   293.4527647691041
0.0055                    0.0085                   293.4348806504513
0.0055                    0.0095                   293.77835780799734
0.0055                    0.0105                   294.8553385936035
0.0055                    0.0115                   296.58572902471496
0.0055                    0.0125                   298.54967993897327
0.0055                    0.0135                   301.13814489272875
0.0055                    0.0145                   303.17843934101313
0.0055                    0.0155                   304.70970686653266
0.0055                    0.0165                   306.1309346165563
0.0055                    0.0175                   307.82535886451
0.0055                    0.0185                   309.2203445820768
0.0055                    0.0195                   310.18671273717376
0.0055                    0.0205                   311.09346995118557
0.0055                    0.0215                   311.72220136455235
0.0055                    0.0225                   311.55335722822906
0.0055                    0.0235                   311.325988477147
0.0055                    0.0245                   310.64896436037867
0.0055                    0.0255                   309.7091296185395
0.0055                    0.0265                   308.878606491653
0.0055                    0.0275                   308.1192147166119
0.0055                    0.0285                   308.41612595341644
0.0055                    0.0295                   308.6319047176862
0.0055                    0.0305                   309.5624717192586
0.0055                    0.0315                   310.9185896937112
0.0065                    -0.0315                  331.1127302135098
0.0065                    -0.0305                  328.4902009142391
0.0065                    -0.0295                  325.8821120419395
0.0065                    -0.0285                  322.4510382506877
0.0065                    -0.0275                  319.0628920466487
0.0065                    -0.0265                  318.46503602481795
0.0065                    -0.0255                  317.8671800029871
0.0065                    -0.0245                  317.19117472383397
0.0065                    -0.0235                  317.6376673021583
0.0065                    -0.0225                  318.2461286353034
0.0065                    -0.0215                  318.6418816382971
0.0065                    -0.0205                  320.2294560772173
0.0065                    -0.0195                  321.8170305161375
0.0065                    -0.0185                  322.87729834199206
0.0065                    -0.0175                  324.6561964714205
0.0065                    -0.0165                  326.43509460084897
0.0065                    -0.0155                  327.61041273675335
0.0065                    -0.0145                  328.6708341196918
0.0065                    -0.0135                  329.7312555026302
0.0065                    -0.0125                  330.4279443532414
0.0065                    -0.0115                  330.36748108251237
0.0065                    -0.0105                  330.30861860862285
0.0065                    -0.0095                  330.06973472045405
0.0065                    -0.0085                  328.77438521928093
0.0065                    -0.0075                  327.5127735651881
0.0065                    -0.0065                  326.0476964710995
0.0065                    -0.0055                  323.538504029818
0.0065                    -0.0045                  321.16056289389115
0.0065                    -0.0035                  318.7469625622898
0.0065                    -0.0025                  315.6976057861114
0.0065                    -0.0015                  312.85009175931765
0.0065                    -5.0E-4                  310.73582671723216
0.0065                    5.0E-4                   308.7565291328828
0.0065                    0.0015                   305.876215412861
0.0065                    0.0025                   302.58681213613335
0.0065                    0.0035                   299.2974088594057
0.0065                    0.0045                   297.0590799434005
0.0065                    0.0055                   295.1670338414271
0.0065                    0.0065                   293.71052622824175
0.0065                    0.0075                   293.6006908128901
0.0065                    0.0085                   293.540400312865
0.0065                    0.0095                   294.01251451692195
0.0065                    0.0105                   295.5315686515195