% Model:              SIMBench260525.mph
% Version:            COMSOL 6.2.0.339
% Date:               May 27 2026, 17:47
% Dimension:          2
% Nodes:              4096
% Expressions:        1
% Description:        温度
% Length unit:        m
% x                       y                        T (K)
5.0E-4                    -0.0315                  364.4682633926813
5.0E-4                    -0.0305                  362.60862462640705
5.0E-4                    -0.0295                  360.73472948324905
5.0E-4                    -0.0285                  357.4314961804667
5.0E-4                    -0.0275                  353.9239363351686
5.0E-4                    -0.0265                  350.41637648987063
5.0E-4                    -0.0255                  347.28766107175176
5.0E-4                    -0.0245                  344.7074136073129
5.0E-4                    -0.0235                  342.12716614287405
5.0E-4                    -0.0225                  340.6505231036594
5.0E-4                    -0.0215                  338.88775223248524
5.0E-4                    -0.0205                  337.1249813613112
5.0E-4                    -0.0195                  336.2781442305396
5.0E-4                    -0.0185                  334.78262271711174
5.0E-4                    -0.0175                  333.2871012036838
5.0E-4                    -0.0165                  332.5402793724437
5.0E-4                    -0.0155                  330.9038059807247
5.0E-4                    -0.0145                  329.2673325890057
5.0E-4                    -0.0135                  327.8135402487567
5.0E-4                    -0.0125                  324.7336556237797
5.0E-4                    -0.0115                  321.65377099880277
5.0E-4                    -0.0105                  317.9848934694127
5.0E-4                    -0.0095                  310.72895522282744
5.0E-4                    -0.0085                  303.4730169762421
5.0E-4                    -0.0075                  297.2621026307652
5.0E-4                    -0.0065                  296.52693632876014
5.0E-4                    -0.0055                  295.7917700267552
5.0E-4                    -0.0045                  294.3227786703683
5.0E-4                    -0.0035                  294.2554147387216
5.0E-4                    -0.0025                  294.18805080707483
5.0E-4                    -0.0015                  293.4780223436523
5.0E-4                    -5.0E-4                  293.2872883474271
5.0E-4                    5.0E-4                   293.30481854451097
5.0E-4                    0.0015                   293.5302470072833
5.0E-4                    0.0025                   294.29226996451104
5.0E-4                    0.0035                   294.2845320583675
5.0E-4                    0.0045                   294.27679415222394
5.0E-4                    0.0055                   295.4991117731316
5.0E-4                    0.0065                   296.2096267573959
5.0E-4                    0.0075                   296.9201417416601
5.0E-4                    0.0085                   303.34182740252913
5.0E-4                    0.0095                   310.6075811544175
5.0E-4                    0.0105                   317.87333490630596
5.0E-4                    0.0115                   321.8450674115263
5.0E-4                    0.0125                   325.4214831785665
5.0E-4                    0.0135                   328.9978989456067
5.0E-4                    0.0145                   330.61589863537336
5.0E-4                    0.0155                   332.27516304469214
5.0E-4                    0.0165                   333.9344274540109
5.0E-4                    0.0175                   334.6989705087706
5.0E-4                    0.0185                   336.1395065754249
5.0E-4                    0.0195                   337.58004264207915
5.0E-4                    0.0205                   338.3828733199611
5.0E-4                    0.0215                   340.09313167745285
5.0E-4                    0.0225                   341.8033900349444
5.0E-4                    0.0235                   343.2474004174007
5.0E-4                    0.0245                   345.7482964398139
5.0E-4                    0.0255                   348.24919246222703
5.0E-4                    0.0265                   351.12217837717344
5.0E-4                    0.0275                   354.5780970294579
5.0E-4                    0.0285                   358.0340156817425
5.0E-4                    0.0295                   361.34585622850625
5.0E-4                    0.0305                   363.2211502609097
5.0E-4                    0.0315                   365.0964442933132
0.0015                    -0.0315                  363.8005289405039
0.0015                    -0.0305                  362.3329204772022
0.0015                    -0.0295                  359.9618549627199
0.0015                    -0.0285                  356.1404365587924
0.0015                    -0.0275                  352.4659896995063
0.0015                    -0.0265                  349.12764907002804
0.0015                    -0.0255                  345.9290521488428
0.0015                    -0.0245                  343.07984344514983
0.0015                    -0.0235                  341.29115928335887
0.0015                    -0.0225                  340.17435001711067
0.0015                    -0.0215                  338.6499143275057
0.0015                    -0.0205                  337.5395172457965
0.0015                    -0.0195                  337.1584918828908
0.0015                    -0.0185                  336.10940293519093
0.0015                    -0.0175                  335.18849618268445
0.0015                    -0.0165                  334.9328931874495
0.0015                    -0.0155                  333.8689374414707
0.0015                    -0.0145                  332.5824610027152
0.0015                    -0.0135                  331.69245090011884
0.0015                    -0.0125                  329.50756042072345
0.0015                    -0.0115                  326.6187797714427
0.0015                    -0.0105                  323.93696815958015
0.0015                    -0.0095                  318.5009278325532
0.0015                    -0.0085                  310.9428457668133
0.0015                    -0.0075                  303.07567290950055
0.0015                    -0.0065                  299.8681847961223
0.0015                    -0.0055                  298.2473905661202
0.0015                    -0.0045                  295.94542792049026
0.0015                    -0.0035                  295.4612107269616
0.0015                    -0.0025                  294.581515453102
0.0015                    -0.0015                  293.71599076993544
0.0015                    -5.0E-4                  293.331125336694
0.0015                    5.0E-4                   293.3490214613983
0.0015                    0.0015                   293.70627750685003
0.0015                    0.0025                   294.7465563175689
0.0015                    0.0035                   295.6350903330814
0.0015                    0.0045                   295.98944987975744
0.0015                    0.0055                   297.9754054711333
0.0015                    0.0065                   299.30204319580434
0.0015                    0.0075                   302.81918794339884
0.0015                    0.0085                   310.92641217084696
0.0015                    0.0095                   318.5671001784113
0.0015                    0.0105                   324.0362514807702
0.0015                    0.0115                   327.1200844084293
0.0015                    0.0125                   330.4822976940725
0.0015                    0.0135                   332.93237831464353
0.0015                    0.0145                   333.9505336801982
0.0015                    0.0155                   335.33629676337233
0.0015                    0.0165                   336.3877393148306
0.0015                    0.0175                   336.67775459380164
0.0015                    0.0185                   337.6299259276514
0.0015                    0.0195                   338.56766568158474
0.0015                    0.0205                   338.88820143897186
0.0015                    0.0215                   340.03841796129734
0.0015                    0.0225                   341.40199840089736
0.0015                    0.0235                   342.4136333286744
0.0015                    0.0245                   344.370449108666
0.0015                    0.0255                   347.0155652972006
0.0015                    0.0265                   349.7541220484033
0.0015                    0.0275                   352.9894068535048
0.0015                    0.0285                   356.60632128145994
0.0015                    0.0295                   360.47869594632914
0.0015                    0.0305                   362.924928493796
0.0015                    0.0315                   364.42762938139856
0.0025                    -0.0315                  363.13279448832657
0.0025                    -0.0305                  361.31963479951156
0.0025                    -0.0295                  358.7353213981288
0.0025                    -0.0285                  354.9107953653879
0.0025                    -0.0275                  351.1638600453807
0.0025                    -0.0265                  347.89446316989034
0.0025                    -0.0255                  344.694697907837
0.0025                    -0.0245                  342.14009532302185
0.0025                    -0.0235                  340.95934048941785
0.0025                    -0.0225                  339.74653099097816
0.0025                    -0.0215                  338.7218768881473
0.0025                    -0.0205                  338.3659601960581
0.0025                    -0.0195                  338.010043503969
0.0025                    -0.0185                  337.7915207365784
0.0025                    -0.0175                  337.5599852014713
0.0025                    -0.0165                  337.32618778197195
0.0025                    -0.0155                  337.085705081319
0.0025                    -0.0145                  336.2135782706482
0.0025                    -0.0135                  335.3272081204489
0.0025                    -0.0125                  334.2390293832963
0.0025                    -0.0115                  331.55993764509793
0.0025                    -0.0105                  328.8770002909471
0.0025                    -0.0095                  325.9883671213676
0.0025                    -0.0085                  318.108201953553
0.0025                    -0.0075                  310.22803678573837
0.0025                    -0.0065                  303.15442204554455
0.0025                    -0.0055                  300.8512764291901
0.0025                    -0.0045                  298.54813081283555
0.0025                    -0.0035                  296.073570175399
0.0025                    -0.0025                  294.8719253650912
0.0025                    -0.0015                  293.9581785025635
0.0025                    -5.0E-4                  293.5237067726056
0.0025                    5.0E-4                   293.5028435566174
0.0025                    0.0015                   293.8850420286346
0.0025                    0.0025                   295.0236588516822
0.0025                    0.0035                   296.4437443240285
0.0025                    0.0045                   298.313338724079
0.0025                    0.0055                   300.3592598665981
0.0025                    0.0065                   302.4051810091172
0.0025                    0.0075                   310.12899328601765
0.0025                    0.0085                   318.2287490713761
0.0025                    0.0095                   326.1113457092398
0.0025                    0.0105                   329.2235169807677
0.0025                    0.0115                   332.30739047865336
0.0025                    0.0125                   335.36594164522535
0.0025                    0.0135                   336.4785440953493
0.0025                    0.0145                   337.4949050354202
0.0025                    0.0155                   338.492153476388
0.0025                    0.0165                   338.80527663250916
0.0025                    0.0175                   339.0981142879268
0.0025                    0.0185                   339.3068768807157
0.0025                    0.0195                   339.61068992857173
0.0025                    0.0205                   339.95772237004417
0.0025                    0.0215                   340.1232974325922
0.0025                    0.0225                   341.18658539081906
0.0025                    0.0235                   342.25459231068055
0.0025                    0.0245                   343.2759963887585
0.0025                    0.0255                   345.8910396007818
0.0025                    0.0265                   348.5516417375995
0.0025                    0.0275                   351.4007166775518
0.0025                    0.0285                   355.30621207672306
0.0025                    0.0295                   359.2731426087051
0.0025                    0.0305                   362.11474526378515
0.0025                    0.0315                   363.75446140998656
0.0035                    -0.0315                  361.89118197613845
0.0035                    -0.0305                  359.6591835489623
0.0035                    -0.0295                  357.5211025422387
0.0035                    -0.0285                  353.73426388041224
0.0035                    -0.0275                  350.1716225796194
0.0035                    -0.0265                  346.6825069022956
0.0035                    -0.0255                  343.4827416402423
0.0035                    -0.0245                  342.8520922987662
0.0035                    -0.0235                  342.07283287026684
0.0035                    -0.0225                  340.86002337182714
0.0035                    -0.0215                  341.23602166640745
0.0035                    -0.0205                  341.5602395140503
0.0035                    -0.0195                  341.20432282196117
0.0035                    -0.0185                  341.8132682313335
0.0035                    -0.0175                  342.3093248514138
0.0035                    -0.0165                  342.0755274319144
0.0035                    -0.0155                  341.7974580660894
0.0035                    -0.0145                  341.2856561797979
0.0035                    -0.0135                  340.39928602959867
0.0035                    -0.0125                  338.32369497774243
0.0035                    -0.0115                  335.81390157735774
0.0035                    -0.0105                  333.13096422320683
0.0035                    -0.0095                  329.5310781013894
0.0035                    -0.0085                  323.9359116193341
0.0035                    -0.0075                  316.05574645151944
0.0035                    -0.0065                  309.5964669372598
0.0035                    -0.0055                  305.65439336184625
0.0035                    -0.0045                  302.81205788711645
0.0035                    -0.0035                  297.09441526749436
0.0035                    -0.0025                  295.4417376018797
0.0035                    -0.0015                  294.2605101827883
0.0035                    -5.0E-4                  293.57498316595763
0.0035                    5.0E-4                   293.59039026240976
0.0035                    0.0015                   294.1990190577145
0.0035                    0.0025                   295.3267722427557
0.0035                    0.0035                   297.4224323940624
0.0035                    0.0045                   302.86177414179554
0.0035                    0.0055                   304.9076952843146
0.0035                    0.0065                   309.2702771754462
0.0035                    0.0075                   316.2181927346056
0.0035                    0.0085                   324.31794851996415
0.0035                    0.0095                   329.4426253488567
0.0035                    0.0105                   332.7896760721262
0.0035                    0.0115                   335.87354957001185
0.0035                    0.0125                   338.69580914608036
0.0035                    0.0135                   340.84218177175615
0.0035                    0.0145                   341.858542711827
0.0035                    0.0155                   342.69145914020106
0.0035                    0.0165                   343.287878696152
0.0035                    0.0175                   343.58071635156955
0.0035                    0.0185                   343.1390609939226
0.0035                    0.0195                   342.78284081389563
0.0035                    0.0205                   343.1298732553681
0.0035                    0.0215                   342.5673146633862
0.0035                    0.0225                   342.5267064043062
0.0035                    0.0235                   343.5947133241677
0.0035                    0.0245                   343.8374147805466
0.0035                    0.0255                   345.7156295255256
0.0035                    0.0265                   348.3013613652598
0.0035                    0.0275                   350.5797283474818
0.0035                    0.0285                   354.35185777432935
0.0035                    0.0295                   358.3066515628956
0.0035                    0.0305                   360.9249394205647
0.0035                    0.0315                   362.7742881304088
0.0045                    -0.0315                  361.07517834877467
0.0045                    -0.0305                  358.6350409724898
0.0045                    -0.0295                  356.22035322184456
0.0045                    -0.0285                  352.76729646416334
0.0045                    -0.0275                  349.19903949700836
0.0045                    -0.0265                  345.63078252985343
0.0045                    -0.0255                  344.0645730662649
0.0045                    -0.0245                  343.5640892745106
0.0045                    -0.0235                  343.0636054827562
0.0045                    -0.0225                  342.84762795985824
0.0045                    -0.0215                  343.6906603172913
0.0045                    -0.0205                  344.5336926747244
0.0045                    -0.0195                  344.8789220112641
0.0045                    -0.0185                  345.83501572608856
0.0045                    -0.0175                  346.79110944091315
0.0045                    -0.0165                  346.80132793228876
0.0045                    -0.0155                  346.5092110508598
0.0045                    -0.0145                  346.217094169431
0.0045                    -0.0135                  344.8082180390317
0.0045                    -0.0125                  342.40836057218854
0.0045                    -0.0115                  340.0085031053453
0.0045                    -0.0105                  336.8540713256713
0.0045                    -0.0095                  333.0444417620703
0.0045                    -0.0085                  329.23481219846917
0.0045                    -0.0075                  322.76048144979393
0.0045                    -0.0065                  316.43160663141754
0.0045                    -0.0055                  310.45751029450236
0.0045                    -0.0045                  305.4211718894312
0.0045                    -0.0035                  299.70352926980905
0.0045                    -0.0025                  296.1213593828901
0.0045                    -0.0015                  294.9952115624701
0.0045                    -5.0E-4                  293.86906374205006
0.0045                    5.0E-4                   293.9327495875873
0.0045                    0.0015                   294.78112458417235
0.0045                    0.0025                   295.63829003727227
0.0045                    0.0035                   299.874984466909
0.0045                    0.0045                   305.3562454268578
0.0045                    0.0055                   309.6936217157885
0.0045                    0.0065                   316.3077691565595
0.0045                    0.0075                   322.92191659733044
0.0045                    0.0085                   329.3175383378655
0.0045                    0.0095                   332.77390498847376
0.0045                    0.0105                   336.23027163908205
0.0045                    0.0115                   339.323416096805
0.0045                    0.0125                   342.02567664693527
0.0045                    0.0135                   344.7279371970656
0.0045                    0.0145                   346.1356543217027
0.0045                    0.0155                   346.8907648040141
0.0045                    0.0165                   347.6458752863255
0.0045                    0.0175                   347.7187347931677
0.0045                    0.0185                   346.97124510712945
0.0045                    0.0195                   346.22375542109125
0.0045                    0.0205                   345.8369982310404
0.0045                    0.0215                   345.0113318941802
0.0045                    0.0225                   344.18566555731996
0.0045                    0.0235                   344.44408187189276
0.0045                    0.0245                   344.6326741796482
0.0045                    0.0255                   345.4237831012632
0.0045                    0.0265                   347.5262251596859
0.0045                    0.0275                   349.8746357287862
0.0045                    0.0285                   353.6467651556338
0.0045                    0.0295                   357.4188945824813
0.0045                    0.0305                   360.0034558030246
0.0045                    0.0315                   362.06818632691267
0.0055                    -0.0315                  360.25917472141094
0.0055                    -0.0305                  358.02215557228163
0.0055                    -0.0295                  355.80172131938264
0.0055                    -0.0285                  352.0367293308831
0.0055                    -0.0275                  348.4404762968919
0.0055                    -0.0265                  345.72237768781054
0.0055                    -0.0255                  345.0241890224296
0.0055                    -0.0245                  344.4910693602086
0.0055                    -0.0235                  344.07953154663187
0.0055                    -0.0225                  345.46134661417494
0.0055                    -0.0215                  346.30206049635467
0.0055                    -0.0205                  347.14277437853445
0.0055                    -0.0195                  348.59830540447246
0.0055                    -0.0185                  349.54440446011245
0.0055                    -0.0175                  350.45652153080584
0.0055                    -0.0165                  350.4704436106334
0.0055                    -0.0155                  350.1599512038018
0.0055                    -0.0145                  349.61538871722877
0.0055                    -0.0135                  346.78544472239594
0.0055                    -0.0125                  344.38164996774833
0.0055                    -0.0115                  341.6178311808293
0.0055                    -0.0105                  336.5713220481457
0.0055                    -0.0095                  332.7546813815291
0.0055                    -0.0085                  328.9476224540759
0.0055                    -0.0075                  324.3869887979919
0.0055                    -0.0065                  318.05943490884556
0.0055                    -0.0055                  312.19374652136815
0.0055                    -0.0045                  306.7134082791197
0.0055                    -0.0035                  301.02522332715876
0.0055                    -0.0025                  296.3710307276795
0.0055                    -0.0015                  294.96738481304794
0.0055                    -5.0E-4                  293.8983371080065
0.0055                    5.0E-4                   293.8140837968914
0.0055                    0.0015                   294.7474840818819
0.0055                    0.0025                   296.43675238088827
0.0055                    0.0035                   300.89152758218796
0.0055                    0.0045                   306.35668152439735
0.0055                    0.0055                   312.0293224176352
0.0055                    0.0065                   318.45478002100765
0.0055                    0.0075                   325.0251420246684
0.0055                    0.0085                   328.70179786206944
0.0055                    0.0095                   332.14997710546305
0.0055                    0.0105                   335.60860388759755
0.0055                    0.0115                   340.5739745611183
0.0055                    0.0125                   343.29964598504273
0.0055                    0.0135                   346.0253174089672
0.0055                    0.0145                   349.3772087717071
0.0055                    0.0155                   350.1380224043193
0.0055                    0.0165                   350.8988360369316
0.0055                    0.0175                   351.260518219446
0.0055                    0.0185                   350.5087046944394
0.0055                    0.0195                   349.75689116943283
0.0055                    0.0205                   348.4560332730878
0.0055                    0.0215                   347.6358423971328
0.0055                    0.0225                   346.71477835849646
0.0055                    0.0235                   345.4841650114091
0.0055                    0.0245                   345.69523924888495
0.0055                    0.0255                   346.2576569861228
0.0055                    0.0265                   347.13634893155586
0.0055                    0.0275                   349.1695431100906
0.0055                    0.0285                   352.96433902520744
0.0055                    0.0295                   356.77037657433675
0.0055                    0.0305                   359.25547291535975
0.0055                    0.0315                   361.3620845234165
0.0065                    -0.0315                  359.85718916768127
0.0065                    -0.0305                  357.60352366981977
0.0065                    -0.0295                  355.2913467689989
0.0065                    -0.0285                  351.4871800575703
0.0065                    -0.0275                  347.6830133461417
0.0065                    -0.0265                  346.7805151097505
0.0065                    -0.0255                  346.06094074211126
0.0065                    -0.0245                  345.458139099484
0.0065                    -0.0235                  346.3305316300171
0.0065                    -0.0225                  347.85202542415504
0.0065                    -0.0215                  348.99672043189184
0.0065                    -0.0205                  350.27974577517614
0.0065                    -0.0195                  351.8864007831156
0.0065                    -0.0185                  353.1026341007868
0.0065                    -0.0175                  353.4632325396688
0.0065                    -0.0165                  353.5358587564332
0.0065                    -0.0155                  353.40660972565047
0.0065                    -0.0145                  351.16950451680003
0.0065                    -0.0135                  348.262461708309
0.0065                    -0.0125                  345.6280556377686
0.0065                    -0.0115                  340.9492701297696
0.0065                    -0.0105                  335.59267783155076
0.0065                    -0.0095                  331.1839696924786
0.0065                    -0.0085                  327.40620194099586
0.0065                    -0.0075                  323.6350513675428
0.0065                    -0.0065                  317.9643541972327
0.0065                    -0.0055                  312.75466351758587
0.0065                    -0.0045                  307.5271819292056
0.0065                    -0.0035                  302.3107661143865
0.0065                    -0.0025                  297.9835284904966
0.0065                    -0.0015                  294.7947835720031
0.0065                    -5.0E-4                  294.28154328480446
0.0065                    5.0E-4                   294.06025607312034
0.0065                    0.0015                   294.56227647102196
0.0065                    0.0025                   297.87077022614153
0.0065                    0.0035                   301.2986716738707
0.0065                    0.0045                   306.78352147663065
0.0065                    0.0055                   312.57577872376714
0.0065                    0.0065                   318.55081580774134
0.0065                    0.0075                   323.56948953436813
0.0065                    0.0085                   326.69614888293
0.0065                    0.0095                   329.9419499353344
0.0065                    0.0105                   334.3551688537751
0.0065                    0.0115                   339.53595228610095