% Model:              SIMBench260525.mph
% Version:            COMSOL 6.2.0.339
% Date:               May 27 2026, 17:57
% Dimension:          2
% Nodes:              4096
% Expressions:        1
% Description:        温度
% Length unit:        m
% x                       y                        T (K)
5.0E-4                    -0.0315                  312.816747520951
5.0E-4                    -0.0305                  311.78638254046984
5.0E-4                    -0.0295                  310.75824391327853
5.0E-4                    -0.0285                  309.9889522249576
5.0E-4                    -0.0275                  309.2414887384075
5.0E-4                    -0.0265                  308.5205748203349
5.0E-4                    -0.0255                  308.2890960112858
5.0E-4                    -0.0245                  308.0050447257471
5.0E-4                    -0.0235                  307.7385588604211
5.0E-4                    -0.0225                  307.57678076038314
5.0E-4                    -0.0215                  307.4216464223258
5.0E-4                    -0.0205                  307.2597819532332
5.0E-4                    -0.0195                  307.12490458287596
5.0E-4                    -0.0185                  307.0153176708082
5.0E-4                    -0.0175                  306.85653637623443
5.0E-4                    -0.0165                  306.72331924474196
5.0E-4                    -0.0155                  306.6256786560101
5.0E-4                    -0.0145                  306.5087607487602
5.0E-4                    -0.0135                  306.39723488013715
5.0E-4                    -0.0125                  306.28981591334156
5.0E-4                    -0.0115                  306.2320340412791
5.0E-4                    -0.0105                  306.20562436524267
5.0E-4                    -0.0095                  306.1791260110564
5.0E-4                    -0.0085                  306.1855913915698
5.0E-4                    -0.0075                  306.1973452901088
5.0E-4                    -0.0065                  306.2090991886478
5.0E-4                    -0.0055                  306.2393041423585
5.0E-4                    -0.0045                  306.267442225369
5.0E-4                    -0.0035                  306.2955803083795
5.0E-4                    -0.0025                  306.33321986818885
5.0E-4                    -0.0015                  306.3606243801048
5.0E-4                    -5.0E-4                  306.38864828941604
5.0E-4                    5.0E-4                   306.414271821183
5.0E-4                    0.0015                   306.4048947255346
5.0E-4                    0.0025                   306.4042506063474
5.0E-4                    0.0035                   306.3939372139372
5.0E-4                    0.0045                   306.32612261126724
5.0E-4                    0.0055                   306.2869715763412
5.0E-4                    0.0065                   306.166538596643
5.0E-4                    0.0075                   305.9513753527063
5.0E-4                    0.0085                   305.79804439683664
5.0E-4                    0.0095                   305.32958425812376
5.0E-4                    0.0105                   304.72001103694504
5.0E-4                    0.0115                   304.2676545756574
5.0E-4                    0.0125                   303.02416483187636
5.0E-4                    0.0135                   301.6278627859774
5.0E-4                    0.0145                   300.60784936186735
5.0E-4                    0.0155                   298.9773637491637
5.0E-4                    0.0165                   297.32679186583965
5.0E-4                    0.0175                   296.0165893098798
5.0E-4                    0.0185                   295.97135840990893
5.0E-4                    0.0195                   295.92612750993806
5.0E-4                    0.0205                   294.6470513589649
5.0E-4                    0.0215                   293.96435992688055
5.0E-4                    0.0225                   293.3230824384127
5.0E-4                    0.0235                   293.1478217302223
5.0E-4                    0.0245                   293.1415168126547
5.0E-4                    0.0255                   293.151747294536
5.0E-4                    0.0265                   293.17814714208384
5.0E-4                    0.0275                   293.2039648208028
5.0E-4                    0.0285                   293.2802473014826
5.0E-4                    0.0295                   293.3236226546512
5.0E-4                    0.0305                   293.3529292657634
5.0E-4                    0.0315                   293.3711941511925
0.0015                    -0.0315                  312.1477243530268
0.0015                    -0.0305                  311.0313859195086
0.0015                    -0.0295                  310.10374738575
0.0015                    -0.0285                  309.3873333587163
0.0015                    -0.0275                  308.6544595412002
0.0015                    -0.0265                  308.29316677471195
0.0015                    -0.0255                  308.09744291449454
0.0015                    -0.0245                  307.83371084125787
0.0015                    -0.0235                  307.6405661545286
0.0015                    -0.0225                  307.47114588350485
0.0015                    -0.0215                  307.31512817012754
0.0015                    -0.0205                  307.1369395863147
0.0015                    -0.0195                  306.9594059771381
0.0015                    -0.0185                  306.84981906507034
0.0015                    -0.0175                  306.60743606951246
0.0015                    -0.0165                  306.3869514192115
0.0015                    -0.0155                  306.2852114918783
0.0015                    -0.0145                  306.1472714404319
0.0015                    -0.0135                  306.0173580732704
0.0015                    -0.0125                  305.92745477276986
0.0015                    -0.0115                  305.90450441748413
0.0015                    -0.0105                  305.8802432082479
0.0015                    -0.0095                  305.86876482678497
0.0015                    -0.0085                  305.8909439872392
0.0015                    -0.0075                  305.90813985039375
0.0015                    -0.0065                  305.9302890083401
0.0015                    -0.0055                  305.9670590877928
0.0015                    -0.0045                  305.99875471152575
0.0015                    -0.0035                  306.0352771947006
0.0015                    -0.0025                  306.0793876115434
0.0015                    -0.0015                  306.11183640675245
0.0015                    -5.0E-4                  306.1540446918283
0.0015                    5.0E-4                   306.2047512494978
0.0015                    0.0015                   306.2069125753785
0.0015                    0.0025                   306.24487279398966
0.0015                    0.0035                   306.29891085296913
0.0015                    0.0045                   306.24112966554594
0.0015                    0.0055                   306.2720869197083
0.0015                    0.0065                   306.31196124363476
0.0015                    0.0075                   306.096797999698
0.0015                    0.0085                   306.04810145723525
0.0015                    0.0095                   305.92472097698635
0.0015                    0.0105                   305.3438476394443
0.0015                    0.0115                   305.0664872152931
0.0015                    0.0125                   304.50160261633073
0.0015                    0.0135                   303.2356236755918
0.0015                    0.0145                   302.4812419755399
0.0015                    0.0155                   301.3888123392282
0.0015                    0.0165                   299.8384983151078
0.0015                    0.0175                   298.49213653293816
0.0015                    0.0185                   297.81494711209376
0.0015                    0.0195                   296.87418199050137
0.0015                    0.0205                   295.0032512960773
0.0015                    0.0215                   293.97771865917423
0.0015                    0.0225                   293.5127399681471
0.0015                    0.0235                   293.13155894000914
0.0015                    0.0245                   293.12644809357994
0.0015                    0.0255                   293.1564522714185
0.0015                    0.0265                   293.1854119563305
0.0015                    0.0275                   293.2135111711197
0.0015                    0.0285                   293.31388528474474
0.0015                    0.0295                   293.4142593983697
0.0015                    0.0305                   293.4525200910882
0.0015                    0.0315                   293.47202513392756
0.0025                    -0.0315                  311.4787011851026
0.0025                    -0.0305                  310.50642649938214
0.0025                    -0.0295                  309.6563696718706
0.0025                    -0.0285                  308.9135169739201
0.0025                    -0.0275                  308.37857434355243
0.0025                    -0.0265                  308.1622000909731
0.0025                    -0.0255                  307.94979444619497
0.0025                    -0.0245                  307.7615832953046
0.0025                    -0.0235                  307.5858340260167
0.0025                    -0.0225                  307.4100847567287
0.0025                    -0.0215                  307.19504823316436
0.0025                    -0.0205                  307.0141385104764
0.0025                    -0.0195                  306.8332287877886
0.0025                    -0.0185                  306.58442599151925
0.0025                    -0.0175                  306.34184558312205
0.0025                    -0.0165                  306.0992651747249
0.0025                    -0.0155                  305.9371836002808
0.0025                    -0.0145                  305.7990575466657
0.0025                    -0.0135                  305.6609314930506
0.0025                    -0.0125                  305.6267034788037
0.0025                    -0.0115                  305.6032848122164
0.0025                    -0.0105                  305.57986614562896
0.0025                    -0.0095                  305.6050713930517
0.0025                    -0.0085                  305.6270778334764
0.0025                    -0.0075                  305.6500230587667
0.0025                    -0.0065                  305.68951574776963
0.0025                    -0.0055                  305.72623048301597
0.0025                    -0.0045                  305.7636168975753
0.0025                    -0.0035                  305.8076982369789
0.0025                    -0.0025                  305.85182850609795
0.0025                    -0.0015                  305.89507007240127
0.0025                    -5.0E-4                  305.9458939803926
0.0025                    5.0E-4                   305.99671788838396
0.0025                    0.0015                   306.04571407618175
0.0025                    0.0025                   306.09987573692973
0.0025                    0.0035                   306.15403739767766
0.0025                    0.0045                   306.20350133659946
0.0025                    0.0055                   306.25065211490994
0.0025                    0.0065                   306.29780289322053
0.0025                    0.0075                   306.30721779734324
0.0025                    0.0085                   306.2631083310183
0.0025                    0.0095                   306.2189988646933
0.0025                    0.0105                   306.0642764369011
0.0025                    0.0115                   305.78686830180686
0.0025                    0.0125                   305.5094601667126
0.0025                    0.0135                   304.95498744905365
0.0025                    0.0145                   304.1975179744644
0.0025                    0.0155                   303.4400484998752
0.0025                    0.0165                   302.2655249402799
0.0025                    0.0175                   300.9071999996488
0.0025                    0.0185                   299.36296072162156
0.0025                    0.0195                   297.4338746987319
0.0025                    0.0205                   295.5608476399807
0.0025                    0.0215                   294.0556207633942
0.0025                    0.0225                   293.6655321383445
0.0025                    0.0235                   293.2754435132948
0.0025                    0.0245                   293.1310485672085
0.0025                    0.0255                   293.161157248301
0.0025                    0.0265                   293.1911614261395
0.0025                    0.0275                   293.2471491543819
0.0025                    0.0285                   293.3458766856702
0.0025                    0.0295                   293.4437114752333
0.0025                    0.0305                   293.52087365175015
0.0025                    0.0315                   293.5728561166626
0.0035                    -0.0315                  311.16952725092784
0.0035                    -0.0305                  310.22068837934785
0.0035                    -0.0295                  309.32952690571074
0.0035                    -0.0285                  308.7004198904148
0.0035                    -0.0275                  308.45853107645615
0.0035                    -0.0265                  308.22508393761274
0.0035                    -0.0255                  308.0192297124973
0.0035                    -0.0245                  307.87139058209175
0.0035                    -0.0235                  307.70782579100234
0.0035                    -0.0225                  307.50286456340194
0.0035                    -0.0215                  307.1259222462063
0.0035                    -0.0205                  306.89157534320884
0.0035                    -0.0195                  306.65334532949095
0.0035                    -0.0185                  306.2462560329798
0.0035                    -0.0175                  305.9773997708351
0.0035                    -0.0165                  305.7812289009824
0.0035                    -0.0155                  305.6698929009679
0.0035                    -0.0145                  305.53326918725213
0.0035                    -0.0135                  305.4704008701567
0.0035                    -0.0125                  305.49822967790317
0.0035                    -0.0115                  305.47481101131586
0.0035                    -0.0105                  305.49853440069376
0.0035                    -0.0095                  305.55664374424066
0.0035                    -0.0085                  305.5786501846653
0.0035                    -0.0075                  305.6236883687305
0.0035                    -0.0065                  305.67624317183174
0.0035                    -0.0055                  305.71295790707813
0.0035                    -0.0045                  305.7533959324708
0.0035                    -0.0035                  305.79600969385046
0.0035                    -0.0025                  305.8401399629695
0.0035                    -0.0015                  305.8760774320274
0.0035                    -5.0E-4                  305.9184283196957
0.0035                    5.0E-4                   305.96925222768704
0.0035                    0.0015                   306.0047830661954
0.0035                    0.0025                   306.0510249534635
0.0035                    0.0035                   306.1039810964079
0.0035                    0.0045                   306.14232913196844
0.0035                    0.0055                   306.186796492546
0.0035                    0.0065                   306.2342982992657
0.0035                    0.0075                   306.2832832391029
0.0035                    0.0085                   306.25736814610997
0.0035                    0.0095                   306.23728624132895
0.0035                    0.0105                   306.27066427257546
0.0035                    0.0115                   306.0186003882789
0.0035                    0.0125                   305.8301099599157
0.0035                    0.0135                   305.7321931265868
0.0035                    0.0145                   304.97472365199764
0.0035                    0.0155                   304.3713478116241
0.0035                    0.0165                   303.7426915094421
0.0035                    0.0175                   302.384366568811
0.0035                    0.0185                   300.0402247001456
0.0035                    0.0195                   297.6408030771648
0.0035                    0.0205                   295.7807422111217
0.0035                    0.0215                   294.343189175251
0.0035                    0.0225                   293.57866539534734
0.0035                    0.0235                   293.26294546310396
0.0035                    0.0245                   293.1239989605134
0.0035                    0.0255                   293.15526935496763
0.0035                    0.0265                   293.1879824397144
0.0035                    0.0275                   293.2593101470242
0.0035                    0.0285                   293.3715072205566
0.0035                    0.0295                   293.46934201011965
0.0035                    0.0305                   293.54191423833566
0.0035                    0.0315                   293.60485734939795
0.0045                    -0.0315                  310.9919600542847
0.0045                    -0.0305                  310.01450848584244
0.0045                    -0.0295                  309.0605205710405
0.0045                    -0.0285                  308.77557056272343
0.0045                    -0.0275                  308.53486246637067
0.0045                    -0.0265                  308.2941543700179
0.0045                    -0.0255                  308.1249321708327
0.0045                    -0.0245                  307.97709304042723
0.0045                    -0.0235                  307.82925391002163
0.0045                    -0.0225                  307.5002175744176
0.0045                    -0.0215                  307.12327525722185
0.0045                    -0.0205                  306.7690121759412
0.0045                    -0.0195                  306.3888547943106
0.0045                    -0.0185                  305.98176549779936
0.0045                    -0.0175                  305.61295395854813
0.0045                    -0.0165                  305.4991887733525
0.0045                    -0.0155                  305.38785277333795
0.0045                    -0.0145                  305.2784642909064
0.0045                    -0.0135                  305.3090599571603
0.0045                    -0.0125                  305.3396556234141
0.0045                    -0.0115                  305.35937472041513
0.0045                    -0.0105                  305.42410707532446
0.0045                    -0.0095                  305.4888394302337
0.0045                    -0.0085                  305.53917398731994
0.0045                    -0.0075                  305.59735367869416
0.0045                    -0.0065                  305.65553337006844
0.0045                    -0.0055                  305.70145598668057
0.0045                    -0.0045                  305.7431749673665
0.0045                    -0.0035                  305.78489394805234
0.0045                    -0.0025                  305.8240121522761
0.0045                    -0.0015                  305.8585397827752
0.0045                    -5.0E-4                  305.89306741327437
0.0045                    5.0E-4                   305.93271062963106
0.0045                    0.0015                   305.96766179207566
0.0045                    0.0025                   306.0026129545203
0.0045                    0.0035                   306.0455115429259
0.0045                    0.0045                   306.08385957848645
0.0045                    0.0055                   306.12294087018205
0.0045                    0.0065                   306.171559312104
0.0045                    0.0075                   306.2205442519412
0.0045                    0.0085                   306.2516279612016
0.0045                    0.0095                   306.2788800978126
0.0045                    0.0105                   306.31225812905916
0.0045                    0.0115                   306.2587778582329
0.0045                    0.0125                   306.1881878562165
0.0045                    0.0135                   306.11759785419997
0.0045                    0.0145                   305.7989431874934
0.0045                    0.0155                   305.31523705596743
0.0045                    0.0165                   304.83153092444144
0.0045                    0.0175                   303.3798361198035
0.0045                    0.0185                   300.71748867866967
0.0045                    0.0195                   298.0551412375358
0.0045                    0.0205                   296.2599762428656
0.0045                    0.0215                   294.8224232069949
0.0045                    0.0225                   293.50306199813
0.0045                    0.0235                   293.3346858185691
0.0045                    0.0245                   293.1663096390081
0.0045                    0.0255                   293.1492397382485
0.0045                    0.0265                   293.1886900837213
0.0045                    0.0275                   293.2525691917462
0.0045                    0.0285                   293.37030726556384
0.0045                    0.0295                   293.4878984175069
0.0045                    0.0305                   293.5630143541616
0.0045                    0.0315                   293.6259902253632
0.0055                    -0.0315                  310.81439285764145
0.0055                    -0.0305                  309.9722262829982
0.0055                    -0.0295                  309.1506509061648
0.0055                    -0.0285                  308.81580995649097
0.0055                    -0.0275                  308.56870098253995
0.0055                    -0.0265                  308.33349701429745
0.0055                    -0.0255                  308.1266398025595
0.0055                    -0.0245                  307.98708179461346
0.0055                    -0.0235                  307.6979244817817
0.0055                    -0.0225                  307.19754452267694
0.0055                    -0.0215                  306.82196089516003
0.0055                    -0.0205                  306.3972248070122
0.0055                    -0.0195                  305.95855807992416
0.0055                    -0.0185                  305.55245587467493
0.0055                    -0.0175                  305.38535340988403
0.0055                    -0.0165                  305.3076016555008
0.0055                    -0.0155                  305.1955262653246
0.0055                    -0.0145                  305.25599510263356
0.0055                    -0.0135                  305.31408703498937
0.0055                    -0.0125                  305.34324938375664
0.0055                    -0.0115                  305.48829373325884
0.0055                    -0.0105                  305.572205359488
0.0055                    -0.0095                  305.6365422883662
0.0055                    -0.0085                  305.7804536992772
0.0055                    -0.0075                  305.84475172090004
0.0055                    -0.0065                  305.90283990765636
0.0055                    -0.0055                  305.989144273226
0.0055                    -0.0045                  306.03079433755437
0.0055                    -0.0035                  306.07089680897053
0.0055                    -0.0025                  306.0931920035832
0.0055                    -0.0015                  306.12783341923705
0.0055                    -5.0E-4                  306.15113098863674
0.0055                    5.0E-4                   306.13955178705925
0.0055                    0.0015                   306.175117075313
0.0055                    0.0025                   306.18612845546517
0.0055                    0.0035                   306.16984917287004
0.0055                    0.0045                   306.20887656138615
0.0055                    0.0055                   306.217090793505
0.0055                    0.0065                   306.22123871042237
0.0055                    0.0075                   306.27073336288464
0.0055                    0.0085                   306.29223979989763
0.0055                    0.0095                   306.31017735195286
0.0055                    0.0105                   306.3435350271005
0.0055                    0.0115                   306.3649756864603
0.0055                    0.0125                   306.32031538858115
0.0055                    0.0135                   306.24913662673094
0.0055                    0.0145                   306.1891230931467
0.0055                    0.0155                   305.7765054030469
0.0055                    0.0165                   305.2805025575365
0.0055                    0.0175                   303.89380630606206
0.0055                    0.0185                   301.3211598681894
0.0055                    0.0195                   298.6817618509866
0.0055                    0.0205                   296.2142788559082
0.0055                    0.0215                   294.7710842800749
0.0055                    0.0225                   293.7123201902234
0.0055                    0.0235                   293.3248744951249
0.0055                    0.0245                   293.1806396404629
0.0055                    0.0255                   293.1516680448245
0.0055                    0.0265                   293.18951202814
0.0055                    0.0275                   293.2458282364681
0.0055                    0.0285                   293.3607436869538
0.0055                    0.0295                   293.4748601929001
0.0055                    0.0305                   293.5634864318409
0.0055                    0.0315                   293.6471231013284
0.0065                    -0.0315                  310.9008376184202
0.0065                    -0.0305                  310.0510580897708
0.0065                    -0.0295                  309.26818168130717
0.0065                    -0.0285                  308.9333407316334
0.0065                    -0.0275                  308.602871303561
0.0065                    -0.0265                  308.37615374018577
0.0065                    -0.0255                  308.1494361768105
0.0065                    -0.0245                  307.9875716526188
0.0065                    -0.0235                  307.4501371074533
0.0065                    -0.0225                  306.8746943671693
0.0065                    -0.0215                  306.4402132305559
0.0065                    -0.0205                  305.9671170474878
0.0065                    -0.0195                  305.4940208644198
0.0065                    -0.0185                  305.18192080477417
0.0065                    -0.0175                  305.1621502527509
0.0065                    -0.0165                  305.140127254068
0.0065                    -0.0155                  305.10918834267886
0.0065                    -0.0145                  305.24561151594014
0.0065                    -0.0135                  305.368821936712
0.0065                    -0.0125                  305.4544115419051
0.0065                    -0.0115                  305.63623735497276
0.0065                    -0.0105                  305.79177221027334
0.0065                    -0.0095                  305.8994414169667
0.0065                    -0.0085                  306.0565982037493
0.0065                    -0.0075                  306.1812668665528
0.0065                    -0.0065                  306.2574032623787
0.0065                    -0.0055                  306.34702337922187
0.0065                    -0.0045                  306.415714349527
0.0065                    -0.0035                  306.44265350613466
0.0065                    -0.0025                  306.4627042377389
0.0065                    -0.0015                  306.490709910072
0.0065                    -5.0E-4                  306.47572759908877
0.0065                    5.0E-4                   306.4474772452086
0.0065                    0.0015                   306.4608033265587
0.0065                    0.0025                   306.42083259109256
0.0065                    0.0035                   306.37267957454594
0.0065                    0.0045                   306.38870807067343
0.0065                    0.0055                   306.35260078010594
0.0065                    0.0065                   306.31649348953846
0.0065                    0.0075                   306.34624065880894
0.0065                    0.0085                   306.3430941640696
0.0065                    0.0095                   306.33994766933023
0.0065                    0.0105                   306.3671440054851
0.0065                    0.0115                   306.38219871097124