% Model:              SIMBench260525.mph
% Version:            COMSOL 6.2.0.339
% Date:               May 27 2026, 17:58
% Dimension:          2
% Nodes:              4096
% Expressions:        1
% Description:        温度
% Length unit:        m
% x                       y                        T (K)
% mirrored_by_python_y_to_minus_y, coord_match_decimals=12
0.0005 -0.0315 310.857046132
0.0005 -0.0305 309.758934295
0.0005 -0.0295 308.663944653
0.0005 -0.0285 306.89638847
0.0005 -0.0275 304.305419421
0.0005 -0.0265 301.971935215
0.0005 -0.0255 299.440785135
0.0005 -0.0245 296.814394292
0.0005 -0.0235 294.691532671
0.0005 -0.0225 293.98061296
0.0005 -0.0215 293.311314903
0.0005 -0.0205 293.167836853
0.0005 -0.0195 293.156933504
0.0005 -0.0185 293.155576524
0.0005 -0.0175 293.159467153
0.0005 -0.0165 293.16226707
0.0005 -0.0155 293.152844705
0.0005 -0.0145 293.135650084
0.0005 -0.0135 293.115559567
0.0005 -0.0125 293.177645715
0.0005 -0.0115 293.329629602
0.0005 -0.0105 295.025089709
0.0005 -0.0095 301.369239733
0.0005 -0.0085 308.126098425
0.0005 -0.0075 323.466275677
0.0005 -0.0065 339.768763551
0.0005 -0.0055 356.071251426
0.0005 -0.0045 368.92967445
0.0005 -0.0035 382.749249334
0.0005 -0.0025 395.691756967
0.0005 -0.0015 398.706268562
0.0005 -0.0005 400.713732432
0.0005 0.0005 402.669710068
0.0005 0.0015 404.146338201
0.0005 0.0025 405.437578925
0.0005 0.0035 406.745402104
0.0005 0.0045 407.963284111
0.0005 0.0055 409.145299596
0.0005 0.0065 410.344479447
0.0005 0.0075 411.538235363
0.0005 0.0085 412.729799651
0.0005 0.0095 413.935093581
0.0005 0.0105 415.215391776
0.0005 0.0115 416.49568997
0.0005 0.0125 417.809694053
0.0005 0.0135 419.268866071
0.0005 0.0145 420.728038089
0.0005 0.0155 422.321216302
0.0005 0.0165 424.13038093
0.0005 0.0175 425.949339465
0.0005 0.0185 428.156637362
0.0005 0.0195 430.681093521
0.0005 0.0205 433.2705193
0.0005 0.0215 436.672081047
0.0005 0.0225 440.444128028
0.0005 0.0235 444.44330505
0.0005 0.0245 449.327929299
0.0005 0.0255 454.378451654
0.0005 0.0265 459.73606249
0.0005 0.0275 464.634265708
0.0005 0.0285 469.438188644
0.0005 0.0295 473.672438782
0.0005 0.0305 475.743600234
0.0005 0.0315 477.803726445
0.0015 -0.0315 309.677565706
0.0015 -0.0305 308.737435049
0.0015 -0.0295 307.704529348
0.0015 -0.0285 306.745171181
0.0015 -0.0275 304.464059331
0.0015 -0.0265 302.441106346
0.0015 -0.0255 300.301583745
0.0015 -0.0245 297.757661149
0.0015 -0.0235 295.399808467
0.0015 -0.0225 293.932998882
0.0015 -0.0215 293.487467112
0.0015 -0.0205 293.198116329
0.0015 -0.0195 293.160752123
0.0015 -0.0185 293.171231828
0.0015 -0.0175 293.179992183
0.0015 -0.0165 293.178090027
0.0015 -0.0155 293.166671135
0.0015 -0.0145 293.151725089
0.0015 -0.0135 293.117310628
0.0015 -0.0125 293.074519561
0.0015 -0.0115 293.228837331
0.0015 -0.0105 296.844397341
0.0015 -0.0095 301.31603047
0.0015 -0.0085 311.790771429
0.0015 -0.0075 330.163199014
0.0015 -0.0065 347.336562224
0.0015 -0.0055 361.283118953
0.0015 -0.0045 373.293509244
0.0015 -0.0035 386.62123501
0.0015 -0.0025 393.581563871
0.0015 -0.0015 397.535702124
0.0015 -0.0005 399.783345766
0.0015 0.0005 401.60462256
0.0015 0.0015 403.381436296
0.0015 0.0025 404.672677019
0.0015 0.0035 406.007326041
0.0015 0.0045 407.318883765
0.0015 0.0055 408.504867396
0.0015 0.0065 409.720150348
0.0015 0.0075 410.928454663
0.0015 0.0085 412.124048965
0.0015 0.0095 413.331079186
0.0015 0.0105 414.569688999
0.0015 0.0115 415.849971648
0.0015 0.0125 417.130231246
0.0015 0.0135 418.511701247
0.0015 0.0145 419.987441389
0.0015 0.0155 421.477095004
0.0015 0.0165 423.191237996
0.0015 0.0175 425.078804303
0.0015 0.0185 427.002348838
0.0015 0.0195 429.433775389
0.0015 0.0205 432.193727492
0.0015 0.0215 435.002293225
0.0015 0.0225 438.764005933
0.0015 0.0235 443.12951313
0.0015 0.0245 447.587631736
0.0015 0.0255 452.71475305
0.0015 0.0265 458.356541944
0.0015 0.0275 463.802391137
0.0015 0.0285 468.425505826
0.0015 0.0295 472.806338094
0.0015 0.0305 475.691246832
0.0015 0.0315 477.209405015
0.0025 -0.0315 308.49808528
0.0025 -0.0305 307.527746801
0.0025 -0.0295 306.572837472
0.0025 -0.0285 305.650551488
0.0025 -0.0275 304.847804645
0.0025 -0.0265 302.835058362
0.0025 -0.0255 300.822312079
0.0025 -0.0245 298.463574375
0.0025 -0.0235 296.12064876
0.0025 -0.0225 293.975716835
0.0025 -0.0215 293.613659404
0.0025 -0.0205 293.325595534
0.0025 -0.0195 293.175986182
0.0025 -0.0185 293.18685167
0.0025 -0.0175 293.197717159
0.0025 -0.0165 293.192205582
0.0025 -0.0155 293.180757356
0.0025 -0.0145 293.156451057
0.0025 -0.0135 293.113765497
0.0025 -0.0125 293.071079936
0.0025 -0.0115 294.638784851
0.0025 -0.0105 298.262980896
0.0025 -0.0095 301.88717694
0.0025 -0.0085 317.030911941
0.0025 -0.0075 335.433540308
0.0025 -0.0065 353.561929682
0.0025 -0.0055 365.730990887
0.0025 -0.0045 377.745248122
0.0025 -0.0035 387.526354403
0.0025 -0.0025 391.48034267
0.0025 -0.0015 395.434330938
0.0025 -0.0005 398.673430688
0.0025 0.0005 400.458985836
0.0025 0.0015 402.244540983
0.0025 0.0025 403.916100935
0.0025 0.0035 405.251619807
0.0025 0.0045 406.587138678
0.0025 0.0055 407.958377748
0.0025 0.0065 409.174547523
0.0025 0.0075 410.390717299
0.0025 0.0085 411.679499879
0.0025 0.0095 412.889023122
0.0025 0.0105 414.099159002
0.0025 0.0115 415.395366297
0.0025 0.0125 416.678891425
0.0025 0.0135 417.952608439
0.0025 0.0145 419.428515234
0.0025 0.0155 420.920561031
0.0025 0.0165 422.399216617
0.0025 0.0175 424.323015948
0.0025 0.0185 426.246815279
0.0025 0.0195 428.322987344
0.0025 0.0205 431.131218253
0.0025 0.0215 433.939449161
0.0025 0.0225 437.326236261
0.0025 0.0235 441.701242771
0.0025 0.0245 446.076249281
0.0025 0.0255 451.14279922
0.0025 0.0265 456.734180244
0.0025 0.0275 462.345513538
0.0025 0.0285 467.434340594
0.0025 0.0295 471.841301092
0.0025 0.0305 474.776893324
0.0025 0.0315 476.615083584
0.0035 -0.0315 307.322016304
0.0035 -0.0305 306.273821777
0.0035 -0.0295 305.305271349
0.0035 -0.0285 304.585664973
0.0035 -0.0275 304.268791337
0.0035 -0.0265 303.059550934
0.0035 -0.0255 300.832994373
0.0035 -0.0245 298.263446508
0.0035 -0.0235 295.903499079
0.0035 -0.0225 294.410230658
0.0035 -0.0215 293.557679871
0.0035 -0.0205 293.28161072
0.0035 -0.0195 293.215500693
0.0035 -0.0185 293.202330602
0.0035 -0.0175 293.21002793
0.0035 -0.0165 293.212430264
0.0035 -0.0155 293.200982038
0.0035 -0.0145 293.143994041
0.0035 -0.0135 293.086426725
0.0035 -0.0125 293.230910125
0.0035 -0.0115 294.628484397
0.0035 -0.0105 297.740165185
0.0035 -0.0095 304.789784149
0.0035 -0.0085 316.84164586
0.0035 -0.0075 335.244274227
0.0035 -0.0065 352.320974061
0.0035 -0.0055 367.253649735
0.0035 -0.0045 379.26790697
0.0035 -0.0035 384.952088357
0.0035 -0.0025 389.430871193
0.0035 -0.0015 393.347335967
0.0035 -0.0005 396.561754664
0.0035 0.0005 398.831558462
0.0035 0.0015 400.692954497
0.0035 0.0025 402.882818597
0.0035 0.0035 404.391023642
0.0035 0.0045 405.91284612
0.0035 0.0055 407.819767461
0.0035 0.0065 409.083311395
0.0035 0.0075 410.495585582
0.0035 0.0085 412.107556325
0.0035 0.0095 413.317079568
0.0035 0.0105 414.612161226
0.0035 0.0115 415.950650781
0.0035 0.0125 417.234175909
0.0035 0.0135 418.467013239
0.0035 0.0145 419.768627537
0.0035 0.0155 421.260673334
0.0035 0.0165 422.560563578
0.0035 0.0175 424.122557974
0.0035 0.0185 426.041181366
0.0035 0.0195 427.768397519
0.0035 0.0205 430.140105194
0.0035 0.0215 432.954832728
0.0035 0.0225 435.800044921
0.0035 0.0235 439.789367421
0.0035 0.0245 444.317722826
0.0035 0.0255 449.158408632
0.0035 0.0265 454.620866545
0.0035 0.0275 460.376386274
0.0035 0.0285 466.225919826
0.0035 0.0295 471.001202448
0.0035 0.0305 473.350074997
0.0035 0.0315 475.492553489
0.0045 -0.0315 306.304402838
0.0045 -0.0305 305.179797764
0.0045 -0.0295 304.084089942
0.0045 -0.0285 303.758203423
0.0045 -0.0275 303.436466961
0.0045 -0.0265 303.114730498
0.0045 -0.0255 300.757551698
0.0045 -0.0245 298.188003834
0.0045 -0.0235 295.932791228
0.0045 -0.0225 294.844744481
0.0045 -0.0215 293.756697734
0.0045 -0.0205 293.343416233
0.0045 -0.0195 293.277306206
0.0045 -0.0185 293.217809533
0.0045 -0.0175 293.22147452
0.0045 -0.0165 293.224955655
0.0045 -0.0155 293.201274629
0.0045 -0.0145 293.132067423
0.0045 -0.0135 293.062860218
0.0045 -0.0125 294.020035339
0.0045 -0.0115 295.417609611
0.0045 -0.0105 297.217349475
0.0045 -0.0095 308.725164133
0.0045 -0.0085 320.265566259
0.0045 -0.0075 334.551499401
0.0045 -0.0065 351.080018439
0.0045 -0.0055 367.608537478
0.0045 -0.0045 377.224242296
0.0045 -0.0035 382.250632249
0.0045 -0.0025 387.277022202
0.0045 -0.0015 390.849680002
0.0045 -0.0005 394.064098699
0.0045 0.0005 397.204131088
0.0045 0.0015 399.310035517
0.0045 0.0025 401.499899617
0.0045 0.0035 403.530427478
0.0045 0.0045 405.397047362
0.0045 0.0055 407.303968702
0.0045 0.0065 409.020470532
0.0045 0.0075 410.658279804
0.0045 0.0085 412.296089076
0.0045 0.0095 413.774083616
0.0045 0.0105 415.12516345
0.0045 0.0115 416.476243285
0.0045 0.0125 417.766067028
0.0045 0.0135 418.981418039
0.0045 0.0145 420.19676905
0.0045 0.0155 421.495317181
0.0045 0.0165 422.770427619
0.0045 0.0175 424.045538057
0.0045 0.0185 425.723232839
0.0045 0.0195 427.450448993
0.0045 0.0205 429.177665146
0.0045 0.0215 431.986403984
0.0045 0.0225 434.831616178
0.0045 0.0235 437.87749207
0.0045 0.0245 442.682134455
0.0045 0.0255 447.522820261
0.0045 0.0265 452.56681195
0.0045 0.0275 458.452643573
0.0045 0.0285 464.338475195
0.0045 0.0295 470.058034151
0.0045 0.0305 472.36426128
0.0045 0.0315 474.674906035
0.0055 -0.0315 305.286789371
0.0055 -0.0305 304.448085193
0.0055 -0.0295 303.675859506
0.0055 -0.0285 303.356003643
0.0055 -0.0275 303.03426718
0.0055 -0.0265 302.306019897
0.0055 -0.0255 300.603422105
0.0055 -0.0245 298.037324571
0.0055 -0.0235 296.004085101
0.0055 -0.0225 294.671289037
0.0055 -0.0215 293.653139979
0.0055 -0.0205 293.348507075
0.0055 -0.0195 293.282687008
0.0055 -0.0185 293.245071738
0.0055 -0.0175 293.241092629
0.0055 -0.0165 293.244486089
0.0055 -0.0155 293.201728278
0.0055 -0.0145 293.134133958
0.0055 -0.0135 293.207620105
0.0055 -0.0125 293.945473234
0.0055 -0.0115 295.350614294
0.0055 -0.0105 299.141985531
0.0055 -0.0095 308.268396702
0.0055 -0.0085 319.839639402
0.0055 -0.0075 336.248584535
0.0055 -0.0065 352.870005354
0.0055 -0.0055 368.49937726
0.0055 -0.0045 374.114357545
0.0055 -0.0035 379.143015088
0.0055 -0.0025 383.856906798
0.0055 -0.0015 387.489159242
0.0055 -0.0005 390.70791021
0.0055 0.0005 393.722686523
0.0055 0.0015 396.198809502
0.0055 0.0025 398.386839952
0.0055 0.0035 400.770227998
0.0055 0.0045 402.951994578
0.0055 0.0055 404.853292329
0.0055 0.0065 407.284019328
0.0055 0.0075 409.236882621
0.0055 0.0085 410.866905012
0.0055 0.0095 413.482808381
0.0055 0.0105 415.111255954
0.0055 0.0115 416.458647569
0.0055 0.0125 418.933583759
0.0055 0.0135 420.251180334
0.0055 0.0145 421.494122839
0.0055 0.0155 422.966664898
0.0055 0.0165 424.245995883
0.0055 0.0175 425.487237213
0.0055 0.0185 426.714407906
0.0055 0.0195 428.442595698
0.0055 0.0205 430.066364648
0.0055 0.0215 432.03507808
0.0055 0.0225 434.870500007
0.0055 0.0235 437.749641282
0.0055 0.0245 441.767717994
0.0055 0.0255 446.658277192
0.0055 0.0265 451.845006001
0.0055 0.0275 457.487504856
0.0055 0.0285 463.370594336
0.0055 0.0295 469.17686948
0.0055 0.0305 471.57351458
0.0055 0.0315 473.85725858
0.0065 -0.0315 304.843505193
0.0065 -0.0305 303.998584802
0.0065 -0.0295 303.271909214
0.0065 -0.0285 302.952130933
0.0065 -0.0275 302.519528114
0.0065 -0.0265 301.440113071
0.0065 -0.0255 300.360698029
0.0065 -0.0245 298.051563358
0.0065 -0.0235 296.234309426
0.0065 -0.0225 294.439593756
0.0065 -0.0215 293.808467382
0.0065 -0.0205 293.482763719
0.0065 -0.0195 293.285566858
0.0065 -0.0185 293.274275181
0.0065 -0.0175 293.262983504
0.0065 -0.0165 293.242004676
0.0065 -0.0155 293.193953864
0.0065 -0.0145 293.138320296
0.0065 -0.0135 293.520350951
0.0065 -0.0125 293.998594536
0.0065 -0.0115 295.711215083
0.0065 -0.0105 301.329269003
0.0065 -0.0095 306.947322924
0.0065 -0.0085 320.832568815
0.0065 -0.0075 338.199888266
0.0065 -0.0065 355.338895349
0.0065 -0.0055 364.879559743
0.0065 -0.0045 370.580764235
0.0065 -0.0035 375.935686534
0.0065 -0.0025 379.915961816
0.0065 -0.0015 383.719015308
0.0065 -0.0005 387.123950422
0.0065 0.0005 389.827803959
0.0065 0.0015 392.53008781
0.0065 0.0025 394.856712063
0.0065 0.0035 397.411841214
0.0065 0.0045 399.966970365
0.0065 0.0055 402.111816707
0.0065 0.0065 404.80471815
0.0065 0.0075 407.418730478
0.0065 0.0085 409.543499294
0.0065 0.0095 412.399648265
0.0065 0.0105 414.97681318
0.0065 0.0115 416.968396953
0.0065 0.0125 419.514696028
0.0065 0.0135 421.673569672
0.0065 0.0145 423.072280796
0.0065 0.0155 424.554441446
0.0065 0.0165 425.953009091
0.0065 0.0175 427.093698384
0.0065 0.0185 428.207579063
0.0065 0.0195 429.653856614
0.0065 0.0205 431.131619478
0.0065 0.0215 432.609382341
0.0065 0.0225 435.119607332
0.0065 0.0235 438.037140014
0.0065 0.0245 440.954672696
0.0065 0.0255 445.908818236
0.0065 0.0265 451.231310679
0.0065 0.0275 456.553803121
0.0065 0.0285 462.335430555
0.0065 0.0295 468.141705699
0.0065 0.0305 470.807165581
0.0065 0.0315 473.168299584
0.0075 -0.0315 304.491615266
0.0075 -0.0305 303.607863943
0.0075 -0.0295 302.89058437
0.0075 -0.0285 302.62440543
0.0075 -0.0275 302.297078444
0.0075 -0.0265 301.027972568
0.0075 -0.0255 299.758866692
0.0075 -0.0245 298.124126246
0.0075 -0.0235 296.252320708
0.0075 -0.0225 294.413465376
0.0075 -0.0215 293.837468322
0.0075 -0.0205 293.511243892
0.0075 -0.0195 293.31490208
0.0075 -0.0185 293.292938871
0.0075 -0.0175 293.281604548
0.0075 -0.0165 293.245726323
0.0075 -0.0155 293.197166582
0.0075 -0.0145 293.218472154
0.0075 -0.0135 293.628149834
0.0075 -0.0125 294.109146617
0.0075 -0.0115 296.525180482
0.0075 -0.0105 302.166127831
0.0075 -0.0095 307.80707518
0.0075 -0.0085 321.69189247
0.0075 -0.0075 339.074262885
0.0075 -0.0065 355.304049718
0.0075 -0.0055 363.077785283
0.0075 -0.0045 368.762509531
0.0075 -0.0035 372.705413326
0.0075 -0.0025 376.297229486
0.0075 -0.0015 380.09520622
0.0075 -0.0005 382.714764473
0.0075 0.0005 385.419112033
0.0075 0.0015 388.123459592
0.0075 0.0025 390.244440761
0.0075 0.0035 392.792280223
0.0075 0.0045 395.340119685
0.0075 0.0055 397.662016592
0.0075 0.0065 400.334868251
0.0075 0.0075 403.007952216
0.0075 0.0085 405.806456088
0.0075 0.0095 408.620719738
0.0075 0.0105 411.569318213
0.0075 0.0115 414.652576783
0.0075 0.0125 417.13309135
0.0075 0.0135 420.22164436
0.0075 0.0145 422.802346152
0.0075 0.0155 424.240497943
0.0075 0.0165 426.738982726
0.0075 0.0175 428.495909654
0.0075 0.0185 429.602915685
0.0075 0.0195 431.051956691
0.0075 0.0205 432.519796068
0.0075 0.0215 433.979848808
0.0075 0.0225 435.879062928
0.0075 0.0235 438.698373194
0.0075 0.0245 441.51768346
0.0075 0.0255 445.439952638
0.0075 0.0265 450.86992414
0.0075 0.0275 456.300531934
0.0075 0.0285 461.794294724
0.0075 0.0295 467.290880268
0.0075 0.0305 470.197414008
0.0075 0.0315 472.625570412
0.0085 -0.0315 304.145869083
0.0085 -0.0305 303.318972834
0.0085 -0.0295 302.622057781
0.0085 -0.0285 302.346366682
0.0085 -0.0275 302.075970303
0.0085 -0.0265 300.790057621
0.0085 -0.0255 299.415014765
0.0085 -0.0245 297.815397658
0.0085 -0.0235 296.035760613
0.0085 -0.0225 294.61732279
0.0085 -0.0215 293.84219665
0.0085 -0.0205 293.500135074
0.0085 -0.0195 293.386572365
0.0085 -0.0185 293.304907886
0.0085 -0.0175 293.2837151
0.0085 -0.0165 293.255652942
0.0085 -0.0155 293.209352399
0.0085 -0.0145 293.333001584
0.0085 -0.0135 293.546516421
0.0085 -0.0125 294.653227626
0.0085 -0.0115 297.34162594
0.0085 -0.0105 301.634429796
0.0085 -0.0095 310.609233958
0.0085 -0.0085 322.448858574
0.0085 -0.0075 338.755651087
0.0085 -0.0065 351.867299713
0.0085 -0.0055 363.38064702
0.0085 -0.0045 369.065371268
0.0085 -0.0035 370.769422215
0.0085 -0.0025 373.076312342
0.0085 -0.0015 376.480001801
0.0085 -0.0005 378.184608991
0.0085 0.0005 380.338821768
0.0085 0.0015 382.69735345
0.0085 0.0025 384.351168706
0.0085 0.0035 386.531345589
0.0085 0.0045 388.845695463
0.0085 0.0055 390.893398381
0.0085 0.0065 393.384561459
0.0085 0.0075 396.125081298
0.0085 0.0085 398.9108013
0.0085 0.0095 401.719820474
0.0085 0.0105 405.26850927
0.0085 0.0115 409.091961224
0.0085 0.0125 411.690762608
0.0085 0.0135 416.090602575
0.0085 0.0145 420.792107804
0.0085 0.0155 422.282881683
0.0085 0.0165 426.161075904
0.0085 0.0175 429.73708134
0.0085 0.0185 430.966626688
0.0085 0.0195 432.600001911
0.0085 0.0205 434.170522471
0.0085 0.0215 435.731367084
0.0085 0.0225 437.399503556
0.0085 0.0235 440.008565431
0.0085 0.0245 442.775702372
0.0085 0.0255 446.502168868
0.0085 0.0265 450.940285351
0.0085 0.0275 456.066369263
0.0085 0.0285 461.584474681
0.0085 0.0295 467.12162844
0.0085 0.0305 469.900677726
0.0085 0.0315 472.108909004
0.0095 -0.0315 303.914394368
0.0095 -0.0305 303.065131594
0.0095 -0.0295 302.35494845
0.0095 -0.0285 302.079257351
0.0095 -0.0275 301.824440163
0.0095 -0.0265 300.458814476
0.0095 -0.0255 299.070201356
0.0095 -0.0245 297.476736973
0.0095 -0.0235 295.828774284
0.0095 -0.0225 294.666700561
0.0095 -0.0215 293.917176506
0.0095 -0.0205 293.53590393
0.0095 -0.0195 293.421326136
0.0095 -0.0185 293.322130506
0.0095 -0.0175 293.288698915
0.0095 -0.0165 293.259740337
0.0095 -0.0155 293.297145537
0.0095 -0.0145 293.424471909
0.0095 -0.0135 293.551798281
0.0095 -0.0125 295.644237432
0.0095 -0.0115 298.343529876
0.0095 -0.0105 301.458001649
0.0095 -0.0095 313.110764912
0.0095 -0.0085 324.970687852
0.0095 -0.0075 337.225423569
0.0095 -0.0065 349.050842946
0.0095 -0.0055 360.876262324
0.0095 -0.0045 367.136216954
0.0095 -0.0035 368.838599787
0.0095 -0.0025 370.540982619
0.0095 -0.0015 372.107845049
0.0095 -0.0005 373.807968617
0.0095 0.0005 375.508092184
0.0095 0.0015 377.038966826
0.0095 0.0025 378.693452378
0.0095 0.0035 380.2674165
0.0095 0.0045 382.258892297
0.0095 0.0055 384.305154743
0.0095 0.0065 386.276415503
0.0095 0.0075 389.048568412
0.0095 0.0085 391.820721322
0.0095 0.0095 394.638638821
0.0095 0.0105 398.414748874
0.0095 0.0115 402.190858927
0.0095 0.0125 406.125230214
0.0095 0.0135 410.67528227
0.0095 0.0145 415.225334326
0.0095 0.0155 419.816039517
0.0095 0.0165 423.43088489
0.0095 0.0175 427.045730262
0.0095 0.0185 431.157833935
0.0095 0.0195 432.755754653
0.0095 0.0205 434.743491052
0.0095 0.0215 437.124221686
0.0095 0.0225 438.735808917
0.0095 0.0235 441.244952312
0.0095 0.0245 444.023391519
0.0095 0.0255 447.774135978
0.0095 0.0265 452.171806036
0.0095 0.0275 456.51191219
0.0095 0.0285 461.415222853
0.0095 0.0295 466.952376612
0.0095 0.0305 469.727085674
0.0095 0.0315 471.980331019
0.0105 -0.0315 303.709997466
0.0105 -0.0305 302.85142029
0.0105 -0.0295 302.106240982
0.0105 -0.0285 301.847977547
0.0105 -0.0275 301.59335847
0.0105 -0.0265 300.276924493
0.0105 -0.0255 298.810096735
0.0105 -0.0245 297.403985705
0.0105 -0.0235 295.93475036
0.0105 -0.0225 294.544610385
0.0105 -0.0215 293.923275766
0.0105 -0.0205 293.597041095
0.0105 -0.0195 293.396057939
0.0105 -0.0185 293.342547077
0.0105 -0.0175 293.300499773
0.0105 -0.0165 293.278306032
0.0105 -0.0155 293.279404941
0.0105 -0.0145 293.385988418
0.0105 -0.0135 294.0272099
0.0105 -0.0125 295.463726043
0.0105 -0.0115 298.163018487
0.0105 -0.0105 303.50557227
0.0105 -0.0095 312.008380677
0.0105 -0.0085 323.868303617
0.0105 -0.0075 338.531917283
0.0105 -0.0065 351.583324633
0.0105 -0.0055 362.307404746
0.0105 -0.0045 365.090871759
0.0105 -0.0035 366.959130961
0.0105 -0.0025 368.222861493
0.0105 -0.0015 368.709659226
0.0105 -0.0005 370.409782794
0.0105 0.0005 371.389995433
0.0105 0.0015 371.944893468
0.0105 0.0025 373.599379019
0.0105 0.0035 374.426512565
0.0105 0.0045 375.37526065
0.0105 0.0055 377.421523096
0.0105 0.0065 378.517170063
0.0105 0.0075 380.230636784
0.0105 0.0085 383.002789694
0.0105 0.0095 384.857133004
0.0105 0.0105 387.719401263
0.0105 0.0115 391.484655915
0.0105 0.0125 394.968997318
0.0105 0.0135 399.117355042
0.0105 0.0145 403.909933034
0.0105 0.0155 409.905958487
0.0105 0.0165 414.290069457
0.0105 0.0175 419.271166801
0.0105 0.0185 426.464997621
0.0105 0.0195 429.751357057
0.0105 0.0205 433.394371709
0.0105 0.0215 437.813115672
0.0105 0.0225 439.424702903
0.0105 0.0235 442.303687732
0.0105 0.0245 445.180515921
0.0105 0.0255 448.865936575
0.0105 0.0265 453.118427586
0.0105 0.0275 457.480775859
0.0105 0.0285 462.350970847
0.0105 0.0295 467.115943366
0.0105 0.0305 469.634421683
0.0105 0.0315 471.905948224
0.0115 -0.0315 303.506393271
0.0115 -0.0305 302.650642223
0.0115 -0.0295 301.895939361
0.0115 -0.0285 301.62848556
0.0115 -0.0275 301.362276777
0.0115 -0.0265 300.069112326
0.0115 -0.0255 298.556385084
0.0115 -0.0245 297.137157171
0.0115 -0.0235 295.821985037
0.0115 -0.0225 294.506812903
0.0115 -0.0215 294.012358202
0.0115 -0.0205 293.659844074
0.0115 -0.0195 293.418257367
0.0115 -0.0185 293.363405679
0.0115 -0.0175 293.312300631
0.0115 -0.0165 293.309629127
0.0115 -0.0155 293.310728036
0.0115 -0.0145 293.412268795
0.0115 -0.0135 294.659309213
0.0115 -0.0125 295.906349631
0.0115 -0.0115 298.97440156
0.0115 -0.0105 305.553142892
0.0115 -0.0095 312.131884224
0.0115 -0.0085 324.22840275
0.0115 -0.0075 339.185760986
0.0115 -0.0065 354.11580632
0.0115 -0.0055 359.774900474
0.0115 -0.0045 362.558367487
0.0115 -0.0035 365.079662134
0.0115 -0.0025 365.620248264
0.0115 -0.0015 366.036345943
0.0115 -0.0005 366.89706846
0.0115 0.0005 367.1614472
0.0115 0.0015 367.425825939
0.0115 0.0025 368.20174903
0.0115 0.0035 368.58560863
0.0115 0.0045 368.969468231
0.0115 0.0055 370.077894489
0.0115 0.0065 370.919679366
0.0115 0.0075 371.761464242
0.0115 0.0085 373.672172761
0.0115 0.0095 375.443930348
0.0115 0.0105 377.215687935
0.0115 0.0115 380.617622032
0.0115 0.0125 384.101963436
0.0115 0.0135 387.586304839
0.0115 0.0145 393.167389537
0.0115 0.0155 399.16341499
0.0115 0.0165 405.149254025
0.0115 0.0175 411.870260285
0.0115 0.0185 418.478525625
0.0115 0.0195 425.694319231
0.0115 0.0205 431.151532071
0.0115 0.0215 436.608744912
0.0115 0.0225 440.467641055
0.0115 0.0235 443.262247453
0.0115 0.0245 446.056853851
0.0115 0.0255 449.797384917
0.0115 0.0265 454.060174495
0.0115 0.0275 458.449639529
0.0115 0.0285 462.990792473
0.0115 0.0295 467.50659478
0.0115 0.0305 469.893402881
0.0115 0.0315 471.903774902
0.0125 -0.0315 303.328263512
0.0125 -0.0305 302.450794619
0.0125 -0.0295 301.685637739
0.0125 -0.0285 301.404066712
0.0125 -0.0275 301.06526655
0.0125 -0.0265 299.797368
0.0125 -0.0255 298.301430093
0.0125 -0.0245 296.870328638
0.0125 -0.0235 295.634926509
0.0125 -0.0225 294.47653109
0.0125 -0.0215 294.015733392
0.0125 -0.0205 293.659643615
0.0125 -0.0195 293.442224324
0.0125 -0.0185 293.383365172
0.0125 -0.0175 293.318634261
0.0125 -0.0165 293.285090088
0.0125 -0.0155 293.285024483
0.0125 -0.0145 293.62702659
0.0125 -0.0135 294.74642425
0.0125 -0.0125 296.014729017
0.0125 -0.0115 299.143493126
0.0125 -0.0105 305.586074657
0.0125 -0.0095 312.300374836
0.0125 -0.0085 324.968136128
0.0125 -0.0075 339.924343926
0.0125 -0.0065 353.46160349
0.0125 -0.0055 359.888020791
0.0125 -0.0045 362.659167571
0.0125 -0.0035 364.058364755
0.0125 -0.0025 364.237487509
0.0125 -0.0015 364.649905719
0.0125 -0.0005 364.585989694
0.0125 0.0005 364.747937312
0.0125 0.0015 365.021217813
0.0125 0.0025 364.829574617
0.0125 0.0035 365.204138063
0.0125 0.0045 365.607064533
0.0125 0.0055 365.476814474
0.0125 0.0065 366.34843042
0.0125 0.0075 367.119974278
0.0125 0.0085 367.388732777
0.0125 0.0095 369.193403822
0.0125 0.0105 370.674712462
0.0125 0.0115 371.854092552
0.0125 0.0125 375.362851441
0.0125 0.0135 378.283463216
0.0125 0.0145 381.347753899
0.0125 0.0155 387.273594611
0.0125 0.0165 392.84428798
0.0125 0.0175 398.361031812
0.0125 0.0185 404.969297153
0.0125 0.0195 413.953844493
0.0125 0.0205 421.09289154
0.0125 0.0215 426.901340151
0.0125 0.0225 433.989091253
0.0125 0.0235 442.580700522
0.0125 0.0245 446.933191782
0.0125 0.0255 450.726366385
0.0125 0.0265 454.819323488
0.0125 0.0275 458.930331521
0.0125 0.0285 463.389213633
0.0125 0.0295 467.897246194
0.0125 0.0305 470.247050528
0.0125 0.0315 471.964846569
0.0135 -0.0315 303.167331244
0.0135 -0.0305 302.28779849
0.0135 -0.0295 301.465590072
0.0135 -0.0285 301.076663765
0.0135 -0.0275 300.737863603
0.0135 -0.0265 299.496181082
0.0135 -0.0255 298.01442105
0.0135 -0.0245 296.727562258
0.0135 -0.0235 295.612750702
0.0135 -0.0225 294.454355282
0.0135 -0.0215 294.023553801
0.0135 -0.0205 293.66477024
0.0135 -0.0195 293.453796672
0.0135 -0.0185 293.386865656
0.0135 -0.0175 293.324218502
0.0135 -0.0165 293.271273516
0.0135 -0.0155 293.402692042
0.0135 -0.0145 293.902745824
0.0135 -0.0135 294.670351571
0.0135 -0.0125 296.913811603
0.0135 -0.0115 300.37991435
0.0135 -0.0105 304.889051711
0.0135 -0.0095 314.726166087
0.0135 -0.0085 326.936972797
0.0135 -0.0075 340.694298676
0.0135 -0.0065 350.930869725
0.0135 -0.0055 359.946135674
0.0135 -0.0045 363.801739908
0.0135 -0.0035 363.571189131
0.0135 -0.0025 363.360749577
0.0135 -0.0015 363.622263752
0.0135 -0.0005 363.295987644
0.0135 0.0005 363.085116933
0.0135 0.0015 363.137670806
0.0135 0.0025 362.840685182
0.0135 0.0035 362.775288443
0.0135 0.0045 362.822925945
0.0135 0.0055 362.580293312
0.0135 0.0065 362.839312581
0.0135 0.0075 363.046873303
0.0135 0.0085 362.965257094
0.0135 0.0095 363.924336585
0.0135 0.0105 364.538572389
0.0135 0.0115 364.902613805
0.0135 0.0125 367.192974821
0.0135 0.0135 369.013648101
0.0135 0.0145 370.647169529
0.0135 0.0155 375.257854238
0.0135 0.0165 380.436782693
0.0135 0.0175 385.538847715
0.0135 0.0185 392.745101612
0.0135 0.0195 401.819660081
0.0135 0.0205 411.112996835
0.0135 0.0215 418.067840003
0.0135 0.0225 425.015730623
0.0135 0.0235 433.607339892
0.0135 0.0245 442.265372858
0.0135 0.0255 451.29190711
0.0135 0.0265 455.292720296
0.0135 0.0275 459.415034743
0.0135 0.0285 463.873916855
0.0135 0.0295 468.036552709
0.0135 0.0305 470.106048603
0.0135 0.0315 471.791761459
0.0145 -0.0315 303.002738469
0.0145 -0.0305 302.114635097
0.0145 -0.0295 301.287538999
0.0145 -0.0285 300.8572321
0.0145 -0.0275 300.426925201
0.0145 -0.0265 299.230627713
0.0145 -0.0255 297.794603557
0.0145 -0.0245 296.505244997
0.0145 -0.0235 295.465043219
0.0145 -0.0225 294.424841441
0.0145 -0.0215 294.029415933
0.0145 -0.0205 293.668792763
0.0145 -0.0195 293.469728902
0.0145 -0.0185 293.395566163
0.0145 -0.0175 293.350563989
0.0145 -0.0165 293.32990031
0.0145 -0.0155 293.526811949
0.0145 -0.0145 294.087202517
0.0145 -0.0135 294.649304871
0.0145 -0.0125 297.835713125
0.0145 -0.0115 301.195748421
0.0145 -0.0105 305.058092728
0.0145 -0.0095 316.199247903
0.0145 -0.0085 328.430350608
0.0145 -0.0075 340.947142364
0.0145 -0.0065 349.983085824
0.0145 -0.0055 358.907234392
0.0145 -0.0045 363.474373656
0.0145 -0.0035 363.244629223
0.0145 -0.0025 363.01488479
0.0145 -0.0015 362.736507576
0.0145 -0.0005 362.426974455
0.0145 0.0005 362.117441335
0.0145 0.0015 361.860507037
0.0145 0.0025 361.586397509
0.0145 0.0035 361.313978785
0.0145 0.0045 361.08612775
0.0145 0.0055 360.87243276
0.0145 0.0065 360.622029735
0.0145 0.0075 360.525765948
0.0145 0.0085 360.483749458
0.0145 0.0095 360.288365785
0.0145 0.0105 360.611235379
0.0145 0.0115 360.992059822
0.0145 0.0125 361.063676635
0.0145 0.0135 362.391293889
0.0145 0.0145 363.718911143
0.0145 0.0155 364.590832889
0.0145 0.0165 369.367201104
0.0145 0.0175 375.006774647
0.0145 0.0185 378.809984112
0.0145 0.0195 386.853175883
0.0145 0.0205 396.415100941
0.0145 0.0215 406.480735433
0.0145 0.0225 416.042369993
0.0145 0.0235 424.822832402
0.0145 0.0245 433.603663844
0.0145 0.0255 442.862837944
0.0145 0.0265 452.331789233
0.0145 0.0275 459.784720417
0.0145 0.0285 463.697053237
0.0145 0.0295 467.609386057
0.0145 0.0305 469.704473395
0.0145 0.0315 471.550484544
0.0155 -0.0315 302.867026951
0.0155 -0.0305 301.942826222
0.0155 -0.0295 301.109487925
0.0155 -0.0285 300.652919808
0.0155 -0.0275 300.14447934
0.0155 -0.0265 298.970688708
0.0155 -0.0255 297.574786064
0.0155 -0.0245 296.282927737
0.0155 -0.0235 295.312175762
0.0155 -0.0225 294.393117618
0.0155 -0.0215 294.023688989
0.0155 -0.0205 293.672815286
0.0155 -0.0195 293.485719258
0.0155 -0.0185 293.413332168
0.0155 -0.0175 293.381668981
0.0155 -0.0165 293.41172957
0.0155 -0.0155 293.604514328
0.0155 -0.0145 294.172117398
0.0155 -0.0135 295.023159204
0.0155 -0.0125 297.578135377
0.0155 -0.0115 300.938170673
0.0155 -0.0105 307.151652808
0.0155 -0.0095 315.90404233
0.0155 -0.0085 328.135145034
0.0155 -0.0075 341.102074734
0.0155 -0.0065 352.472484193
0.0155 -0.0055 360.59593556
0.0155 -0.0045 362.728836126
0.0155 -0.0035 363.314543373
0.0155 -0.0025 363.071404966
0.0155 -0.0015 362.797118739
0.0155 -0.0005 362.494631769
0.0155 0.0005 362.228176478
0.0155 0.0015 362.002732722
0.0155 0.0025 361.731603948
0.0155 0.0035 361.466654489
0.0155 0.0045 361.208877444
0.0155 0.0055 360.995182455
0.0155 0.0065 360.669739093
0.0155 0.0075 360.384386159
0.0155 0.0085 360.333287029
0.0155 0.0095 359.931927411
0.0155 0.0105 359.774436049
0.0155 0.0115 360.034950702
0.0155 0.0125 359.71546988
0.0155 0.0135 360.286702718
0.0155 0.0145 361.193831381
0.0155 0.0155 361.227458967
0.0155 0.0165 362.203952641
0.0155 0.0175 364.354199884
0.0155 0.0185 367.862835375
0.0155 0.0195 371.886691686
0.0155 0.0205 381.650322894
0.0155 0.0215 391.243223465
0.0155 0.0225 401.212170155
0.0155 0.0235 414.136906536
0.0155 0.0245 424.94195483
0.0155 0.0255 434.197813209
0.0155 0.0265 444.290174757
0.0155 0.0275 453.894017378
0.0155 0.0285 462.054259283
0.0155 0.0295 467.182219404
0.0155 0.0305 469.190989687
0.0155 0.0315 469.871592454
0.0165 -0.0315 302.752079116
0.0165 -0.0305 301.827878386
0.0165 -0.0295 300.922270733
0.0165 -0.0285 300.347516472
0.0165 -0.0275 299.839076005
0.0165 -0.0265 298.671225152
0.0165 -0.0255 297.299496667
0.0165 -0.0245 296.16283874
0.0165 -0.0235 295.28582091
0.0165 -0.0225 294.366762767
0.0165 -0.0215 294.005209428
0.0165 -0.0205 293.669365775
0.0165 -0.0195 293.503120805
0.0165 -0.0185 293.431886752
0.0165 -0.0175 293.396616084
0.0165 -0.0165 293.438750241
0.0165 -0.0155 293.634463601
0.0165 -0.0145 294.257690263
0.0165 -0.0135 295.437829996