% Model:              SIMBench260525.mph
% Version:            COMSOL 6.2.0.339
% Date:               May 27 2026, 17:58
% Dimension:          2
% Nodes:              4096
% Expressions:        1
% Description:        温度
% Length unit:        m
% x                       y                        T (K)
5.0E-4                    -0.0315                  474.3509655215476
5.0E-4                    -0.0305                  472.24693733419963
5.0E-4                    -0.0295                  470.13264210673447
5.0E-4                    -0.0285                  465.89759655778767
5.0E-4                    -0.0275                  461.19953447196445
5.0E-4                    -0.0265                  456.44400269477734
5.0E-4                    -0.0255                  451.5394436584145
5.0E-4                    -0.0245                  446.9636464113621
5.0E-4                    -0.0235                  442.6118677641753
5.0E-4                    -0.0225                  439.2618973641164
5.0E-4                    -0.0215                  436.10526579905104
5.0E-4                    -0.0205                  433.25574637135855
5.0E-4                    -0.0195                  431.09075939687864
5.0E-4                    -0.0185                  428.9829836879713
5.0E-4                    -0.0175                  427.07969991224695
5.0E-4                    -0.0165                  425.5000433084034
5.0E-4                    -0.0155                  423.9335603793382
5.0E-4                    -0.0145                  422.46914918801315
5.0E-4                    -0.0135                  421.2326719121099
5.0E-4                    -0.0125                  419.99619463620667
5.0E-4                    -0.0115                  418.7972957070101
5.0E-4                    -0.0105                  417.79944407661316
5.0E-4                    -0.0095                  416.80159244621626
5.0E-4                    -0.0085                  415.79507274821583
5.0E-4                    -0.0075                  414.95793912350075
5.0E-4                    -0.0065                  414.10617650063415
5.0E-4                    -0.0055                  413.2156954799637
5.0E-4                    -0.0045                  412.4369588839116
5.0E-4                    -0.0035                  411.6105588492939
5.0E-4                    -0.0025                  410.6642289307181
5.0E-4                    -0.0015                  409.739596717365
5.0E-4                    -5.0E-4                  408.6616637732765
5.0E-4                    5.0E-4                   406.8339476988666
5.0E-4                    0.0015                   404.85728828500953
5.0E-4                    0.0025                   402.15830082793354
5.0E-4                    0.0035                   390.530596403936
5.0E-4                    0.0045                   378.0971232207219
5.0E-4                    0.0055                   365.7179843913125
5.0E-4                    0.0065                   346.73159869436915
5.0E-4                    0.0075                   327.7452129974258
5.0E-4                    0.0085                   310.44097943399584
5.0E-4                    0.0095                   302.7018057582676
5.0E-4                    0.0105                   295.42247300839523
5.0E-4                    0.0115                   293.4201456187528
5.0E-4                    0.0125                   293.2159237259166
5.0E-4                    0.0135                   293.11827406925335
5.0E-4                    0.0145                   293.13690745699074
5.0E-4                    0.0155                   293.1545143841862
5.0E-4                    0.0165                   293.1629960795036
5.0E-4                    0.0175                   293.1605885235289
5.0E-4                    0.0185                   293.15733321127504
5.0E-4                    0.0195                   293.1578989208727
5.0E-4                    0.0205                   293.16568326495104
5.0E-4                    0.0215                   293.2633231863343
5.0E-4                    0.0225                   293.7350295950181
5.0E-4                    0.0235                   294.2368827931659
5.0E-4                    0.0245                   295.7715598494867
5.0E-4                    0.0255                   297.71519243794523
5.0E-4                    0.0265                   299.60832272680653
5.0E-4                    0.0275                   301.5594266319324
5.0E-4                    0.0285                   303.7820438895664
5.0E-4                    0.0295                   305.2831399292877
5.0E-4                    0.0305                   306.32608308485754
5.0E-4                    0.0315                   307.37653449013146
0.0015                    -0.0315                  473.8428240937327
0.0015                    -0.0305                  472.24303566038964
0.0015                    -0.0295                  469.31250942326574
0.0015                    -0.0285                  464.888054857405
0.0015                    -0.0275                  460.30691923628865
0.0015                    -0.0265                  455.217563202328
0.0015                    -0.0255                  450.00876974373097
0.0015                    -0.0245                  445.35096743095386
0.0015                    -0.0235                  441.57511577862044
0.0015                    -0.0225                  437.91331586802175
0.0015                    -0.0215                  434.7652508539028
0.0015                    -0.0205                  432.4072929173632
0.0015                    -0.0195                  430.0921430935049
0.0015                    -0.0185                  428.044350125435
0.0015                    -0.0175                  426.3240195576258
0.0015                    -0.0165                  424.65208090190663
0.0015                    -0.0155                  423.12596526564096
0.0015                    -0.0145                  421.69521237974845
0.0015                    -0.0135                  420.3531346574065
0.0015                    -0.0125                  419.10961780108045
0.0015                    -0.0115                  417.85693269825856
0.0015                    -0.0105                  416.75643786981675
0.0015                    -0.0095                  415.69925812371605
0.0015                    -0.0085                  414.5971413093556
0.0015                    -0.0075                  413.6909593456206
0.0015                    -0.0065                  412.7421411582709
0.0015                    -0.0055                  411.74681320780246
0.0015                    -0.0045                  410.94225955849015
0.0015                    -0.0035                  409.9913933555876
0.0015                    -0.0025                  409.0099650866771
0.0015                    -0.0015                  408.085332873324
0.0015                    -5.0E-4                  406.759110464488
0.0015                    5.0E-4                   405.3212586723208
0.0015                    0.0015                   403.16816138269
0.0015                    0.0025                   399.79811959111487
0.0015                    0.0035                   393.66628042482427
0.0015                    0.0045                   381.41896483981725
0.0015                    0.0055                   369.6702393055149
0.0015                    0.0065                   354.65660321838766
0.0015                    0.0075                   335.0416538741044
0.0015                    0.0085                   314.5612669098587
0.0015                    0.0095                   302.74390252809764
0.0015                    0.0105                   297.55091404762607
0.0015                    0.0115                   293.31172762496504
0.0015                    0.0125                   293.10498989780274
0.0015                    0.0135                   293.13166957411136
0.0015                    0.0145                   293.1553801326369
0.0015                    0.0155                   293.1698227793047
0.0015                    0.0165                   293.17930191897045
0.0015                    0.0175                   293.1808252185891
0.0015                    0.0185                   293.1737849154774
0.0015                    0.0195                   293.16540013443114
0.0015                    0.0205                   293.19111893783963
0.0015                    0.0215                   293.38762748635634
0.0015                    0.0225                   293.69725876623505
0.0015                    0.0235                   294.74472321272935
0.0015                    0.0245                   296.43535428121413
0.0015                    0.0255                   298.3012899351975
0.0015                    0.0265                   299.9867561143193
0.0015                    0.0275                   301.61041017114303
0.0015                    0.0285                   303.5588217435463
0.0015                    0.0295                   304.3517286824666
0.0015                    0.0305                   305.28547775582456
0.0015                    0.0315                   306.1986901267517
0.0025                    -0.0315                  473.33468266591785
0.0025                    -0.0305                  471.4640538151947
0.0025                    -0.0295                  468.4963168825345
0.0025                    -0.0285                  464.0297919203426
0.0025                    -0.0275                  459.0717685105128
0.0025                    -0.0265                  453.8642732041631
0.0025                    -0.0255                  448.6818108003734
0.0025                    -0.0245                  444.20723318776004
0.0025                    -0.0235                  440.5278203425322
0.0025                    -0.0225                  436.8484074973043
0.0025                    -0.0215                  434.01227996965247
0.0025                    -0.0205                  431.6566149111025
0.0025                    -0.0195                  429.3009498525526
0.0025                    -0.0185                  427.4485743872945
0.0025                    -0.0175                  425.7278955352318
0.0025                    -0.0165                  424.0072166831692
0.0025                    -0.0155                  422.5001521215011
0.0025                    -0.0145                  421.06761118456825
0.0025                    -0.0135                  419.60270550852437
0.0025                    -0.0125                  418.24402181831294
0.0025                    -0.0115                  416.9909334249577
0.0025                    -0.0105                  415.56187824942674
0.0025                    -0.0095                  414.4570582777727
0.0025                    -0.0085                  413.356992591281
0.0025                    -0.0075                  412.1315261074805
0.0025                    -0.0065                  411.13874976062357
0.0025                    -0.0055                  410.1459734137666
0.0025                    -0.0045                  409.075693995974
0.0025                    -0.0035                  408.09413365096543
0.0025                    -0.0025                  407.1125733059568
0.0025                    -0.0015                  405.93707273945836
0.0025                    -5.0E-4                  404.60287977052656
0.0025                    5.0E-4                   403.26868680159487
0.0025                    0.0015                   400.71604676741526
0.0025                    0.0025                   397.3449723698261
0.0025                    0.0035                   393.97389797223707
0.0025                    0.0045                   384.68931179487356
0.0025                    0.0055                   372.93849783290386
0.0025                    0.0065                   361.00769416233186
0.0025                    0.0075                   341.010570834055
0.0025                    0.0085                   320.49960219110346
0.0025                    0.0095                   303.48008940572515
0.0025                    0.0105                   299.23124865145115
0.0025                    0.0115                   294.9824078971771
0.0025                    0.0125                   293.11042630489413
0.0025                    0.0135                   293.1369442943153
0.0025                    0.0145                   293.1634622837364
0.0025                    0.0155                   293.18459166701035
0.0025                    0.0165                   293.1940935868182
0.0025                    0.0175                   293.1988585072783
0.0025                    0.0185                   293.19018147479653
0.0025                    0.0195                   293.1815044423148
0.0025                    0.0205                   293.281480978827
0.0025                    0.0215                   293.4770920945816
0.0025                    0.0225                   293.7222937122716
0.0025                    0.0235                   295.2521408387945
0.0025                    0.0245                   296.93149924230386
0.0025                    0.0255                   298.67355334619475
0.0025                    0.0265                   300.28653447167505
0.0025                    0.0275                   301.89951559715536
0.0025                    0.0285                   302.5181770085494
0.0025                    0.0295                   303.2811328205461
0.0025                    0.0305                   304.11938370807144
0.0025                    0.0315                   305.020845763372
0.0035                    -0.0315                  472.443002154391
0.0035                    -0.0305                  470.25137736586197
0.0035                    -0.0295                  467.8812939618422
0.0035                    -0.0285                  463.1492775342073
0.0035                    -0.0275                  457.64292680461324
0.0035                    -0.0265                  452.2545295187462
0.0035                    -0.0255                  447.2689430315276
0.0035                    -0.0245                  443.23285234918785
0.0035                    -0.0235                  439.4359849450683
0.0035                    -0.0225                  436.0930835503239
0.0035                    -0.0215                  433.7484245512344
0.0035                    -0.0205                  431.3946929653066
0.0035                    -0.0195                  429.30950326996503
0.0035                    -0.0185                  427.6236458237221
0.0035                    -0.0175                  425.90388382920884
0.0035                    -0.0165                  424.20361173521076
0.0035                    -0.0155                  422.54825189627593
0.0035                    -0.0145                  421.115710959343
0.0035                    -0.0135                  419.3015724357387
0.0035                    -0.0125                  417.50284587818396
0.0035                    -0.0115                  416.2497574848287
0.0035                    -0.0105                  414.2341334505851
0.0035                    -0.0095                  412.4751881611048
0.0035                    -0.0085                  411.375122474613
0.0035                    -0.0075                  409.55643664566315
0.0035                    -0.0065                  408.158223678892
0.0035                    -0.0055                  407.13392067368574
0.0035                    -0.0045                  405.686250631907
0.0035                    -0.0035                  404.55274648111106
0.0035                    -0.0025                  403.5169109160211
0.0035                    -0.0015                  402.26849081674976
0.0035                    -5.0E-4                  400.95036276494085
0.0035                    5.0E-4                   399.45589799112236
0.0035                    0.0015                   397.65294689906443
0.0035                    0.0025                   394.3597941054736
0.0035                    0.0035                   390.83018538012305
0.0035                    0.0045                   386.3768006243582
0.0035                    0.0055                   374.62598666238847
0.0035                    0.0065                   359.4819813287487
0.0035                    0.0075                   341.4554230279028
0.0035                    0.0085                   320.94445438495126
0.0035                    0.0095                   306.9701831006251
0.0035                    0.0105                   298.740765918434
0.0035                    0.0115                   295.06594351583396
0.0035                    0.0125                   293.3107609574774
0.0035                    0.0135                   293.1057367926664
0.0035                    0.0145                   293.1526094965426
0.0035                    0.0155                   293.2041283907151
0.0035                    0.0165                   293.21363031052294
0.0035                    0.0175                   293.21226300218547
0.0035                    0.0185                   293.20635890733223
0.0035                    0.0195                   293.2127523195061
0.0035                    0.0205                   293.2523393202742
0.0035                    0.0215                   293.43951865886277
0.0035                    0.0225                   294.01344903222844
0.0035                    0.0235                   295.05120450764997
0.0035                    0.0245                   296.74913188412063
0.0035                    0.0255                   298.67571085380234
0.0035                    0.0265                   300.4091126905966
0.0035                    0.0275                   301.3457192488809
0.0035                    0.0285                   301.531149990162
0.0035                    0.0295                   302.10076228107727
0.0035                    0.0305                   302.97049699421746
0.0035                    0.0315                   303.9167904391927
0.0045                    -0.0315                  471.9561140808265
0.0045                    -0.0305                  469.5641298795818
0.0045                    -0.0295                  467.194845698596
0.0045                    -0.0285                  461.81142621496485
0.0045                    -0.0275                  456.2646412413419
0.0045                    -0.0265                  450.7178562677189
0.0045                    -0.0255                  446.38872418271865
0.0045                    -0.0245                  442.35263350037883
0.0045                    -0.0235                  438.3441495476045
0.0045                    -0.0225                  435.8244104877858
0.0045                    -0.0215                  433.4797514886963
0.0045                    -0.0205                  431.15053755686364
0.0045                    -0.0195                  429.4646801106205
0.0045                    -0.0185                  427.77882266437746
0.0045                    -0.0175                  426.0868342878075
0.0045                    -0.0165                  424.40274261935417
0.0045                    -0.0155                  422.7186509509008
0.0045                    -0.0145                  420.9873880500992
0.0045                    -0.0135                  419.0004393629531
0.0045                    -0.0125                  417.013490675807
0.0045                    -0.0115                  415.0965463974053
0.0045                    -0.0105                  412.90638865174344
0.0045                    -0.0095                  410.7162309060815
0.0045                    -0.0085                  408.9654186741592
0.0045                    -0.0075                  407.1009007567062
0.0045                    -0.0065                  405.2363828392532
0.0045                    -0.0055                  403.8738220753965
0.0045                    -0.0045                  402.42615203361765
0.0045                    -0.0035                  401.01135931125674
0.0045                    -0.0025                  399.812502973659
0.0045                    -0.0015                  398.5640828743876
0.0045                    -5.0E-4                  397.2978457593552
0.0045                    5.0E-4                   395.5187490152955
0.0045                    0.0015                   393.7157979232376
0.0045                    0.0025                   391.3431284065984
0.0045                    0.0035                   387.6480407645968
0.0045                    0.0045                   383.9529531225952
0.0045                    0.0055                   374.95569333082466
0.0045                    0.0065                   357.95626849516555
0.0045                    0.0075                   340.95684365950643
0.0045                    0.0085                   325.10837078641566
0.0045                    0.0095                   311.66040446368174
0.0045                    0.0105                   298.2502831854169
0.0045                    0.0115                   296.0447573896809
0.0045                    0.0125                   294.2895748313243
0.0045                    0.0135                   293.0796891517508
0.0045                    0.0145                   293.1424820259731
0.0045                    0.0155                   293.2052749001954
0.0045                    0.0165                   293.2271249846399
0.0045                    0.0175                   293.2249111205663
0.0045                    0.0185                   293.222536339868
0.0045                    0.0195                   293.25797676335384
0.0045                    0.0205                   293.297563764122
0.0045                    0.0215                   293.5728445346849
0.0045                    0.0225                   294.30460435218515
0.0045                    0.0235                   295.03636416968544
0.0045                    0.0245                   296.70278269692363
0.0045                    0.0255                   298.6293616666053
0.0045                    0.0265                   300.3915948887544
0.0045                    0.0275                   300.5821334812547
0.0045                    0.0285                   300.77267207375485
0.0045                    0.0295                   300.9659497495423
0.0045                    0.0305                   301.93703254971064
0.0045                    0.0315                   302.93848186048155
0.0055                    -0.0315                  471.469226007262
0.0055                    -0.0305                  469.2154716513454
0.0055                    -0.0295                  466.8695695513525
0.0055                    -0.0285                  461.495040489984
0.0055                    -0.0275                  455.95419281038204
0.0055                    -0.0265                  450.8634906404867
0.0055                    -0.0255                  446.4954727876539
0.0055                    -0.0245                  442.39554229887176
0.0055                    -0.0235                  439.03702460149555
0.0055                    -0.0225                  436.6554890438391
0.0055                    -0.0215                  434.32151898586926
0.0055                    -0.0205                  432.3553738277259
0.0055                    -0.0195                  430.6390822094523
0.0055                    -0.0185                  428.9524685803236
0.0055                    -0.0175                  426.6405236970341
0.0055                    -0.0165                  424.77887921095976
0.0055                    -0.0155                  423.0942021449445
0.0055                    -0.0145                  419.0917942701577
0.0055                    -0.0135                  416.9392486668295
0.0055                    -0.0125                  414.8407648012416
0.0055                    -0.0115                  411.24628469899176
0.0055                    -0.0105                  409.07348086983745
0.0055                    -0.0095                  406.8194725266267
0.0055                    -0.0085                  404.35961293526793
0.0055                    -0.0075                  402.5054257384565
0.0055                    -0.0065                  400.706156763738
0.0055                    -0.0055                  399.1087022841366
0.0055                    -0.0045                  397.6653797751102
0.0055                    -0.0035                  396.36703970945035
0.0055                    -0.0025                  395.19473016058294
0.0055                    -0.0015                  393.94724675728924
0.0055                    -5.0E-4                  392.8405259902829
0.0055                    5.0E-4                   391.35542795032563
0.0055                    0.0015                   389.5513935552469
0.0055                    0.0025                   387.76356756666803
0.0055                    0.0035                   384.560761160899
0.0055                    0.0045                   380.86620103790005
0.0055                    0.0055                   376.63438541604626
0.0055                    0.0065                   360.6925751490611
0.0055                    0.0075                   343.4161263702649
0.0055                    0.0085                   325.07347799532937
0.0055                    0.0095                   311.59209731583934
0.0055                    0.0105                   300.762754878576
0.0055                    0.0115                   296.01935066902695
0.0055                    0.0125                   294.25529809477666
0.0055                    0.0135                   293.2734237352006
0.0055                    0.0145                   293.14318571927606
0.0055                    0.0155                   293.20478327929527
0.0055                    0.0165                   293.24679333694877
0.0055                    0.0175                   293.244655602664
0.0055                    0.0185                   293.24591213421263
0.0055                    0.0195                   293.2673251054155
0.0055                    0.0205                   293.30672774948385
0.0055                    0.0215                   293.49238671905147
0.0055                    0.0225                   294.1752485015371
0.0055                    0.0235                   295.0728953915803
0.0055                    0.0245                   296.4988500801096
0.0055                    0.0255                   298.41820231520404
0.0055                    0.0265                   299.72140976929154
0.0055                    0.0275                   300.2703451026505
0.0055                    0.0285                   300.46088369515076
0.0055                    0.0295                   300.62720375835806
0.0055                    0.0305                   301.2591612882762
0.0055                    0.0315                   301.9601732817704
0.0065                    -0.0315                  471.2743904654442
0.0065                    -0.0305                  468.9921813018003
0.0065                    -0.0295                  466.40750265239205
0.0065                    -0.0285                  461.03297359102345
0.0065                    -0.0275                  455.70266725650737
0.0065                    -0.0265                  451.2117586249686
0.0065                    -0.0255                  446.72084999342974
0.0065                    -0.0245                  442.5626458072545
0.0065                    -0.0235                  440.13934141458697
0.0065                    -0.0225                  437.7160370219193
0.0065                    -0.0215                  435.5121376611822
0.0065                    -0.0205                  433.75434813109985
0.0065                    -0.0195                  431.99655860101757
0.0065                    -0.0185                  429.969528135977
0.0065                    -0.0175                  427.5161833142006
0.0065                    -0.0165                  425.18737550094534
0.0065                    -0.0155                  422.0723755297807
0.0065                    -0.0145                  417.95471461150476
0.0065                    -0.0135                  414.5227057706192
0.0065                    -0.0125                  411.33785985965574
0.0065                    -0.0115                  407.65328114883175
0.0065                    -0.0105                  404.66842993143973
0.0065                    -0.0095                  402.14099188220695
0.0065                    -0.0085                  399.53342560549754
0.0065                    -0.0075                  397.3754418809198
0.0065                    -0.0065                  395.6883783733697
0.0065                    -0.0055                  394.0145338814423
0.0065                    -0.0045                  392.5248329287712
0.0065                    -0.0035                  391.4187496065241
0.0065                    -0.0025                  390.31266628427693
0.0065                    -0.0015                  389.12830464430715
0.0065                    -5.0E-4                  388.13123412802713
0.0065                    5.0E-4                   387.13225384254105
0.0065                    0.0015                   385.3355008542501
0.0065                    0.0025                   383.55438666430314
0.0065                    0.0035                   381.49676494197706
0.0065                    0.0045                   377.503243696381
0.0065                    0.0055                   373.1924248346231
0.0065                    0.0065                   364.3834355678004
0.0065                    0.0075                   345.698759888891
0.0065                    0.0085                   326.3930434641274
0.0065                    0.0095                   310.58779365481286
0.0065                    0.0105                   303.56368905971306
0.0065                    0.0115                   296.5395844646132