% Model:              SIMBench260525.mph
% Version:            COMSOL 6.2.0.339
% Date:               May 27 2026, 17:58
% Dimension:          2
% Nodes:              4096
% Expressions:        1
% Description:        温度
% Length unit:        m
% x                       y                        T (K)
5.0E-4                    -0.0315                  477.80372644477563
5.0E-4                    -0.0305                  475.7436002341718
5.0E-4                    -0.0295                  473.67243878200475
5.0E-4                    -0.0285                  469.43818864361276
5.0E-4                    -0.0275                  464.6342657078915
5.0E-4                    -0.0265                  459.73606248986533
5.0E-4                    -0.0255                  454.3784516537439
5.0E-4                    -0.0245                  449.32792929891
5.0E-4                    -0.0235                  444.44330504935834
5.0E-4                    -0.0225                  440.44412802787167
5.0E-4                    -0.0215                  436.6720810472459
5.0E-4                    -0.0205                  433.2705192995215
5.0E-4                    -0.0195                  430.6810935205659
5.0E-4                    -0.0185                  428.15663736234546
5.0E-4                    -0.0175                  425.9493394654161
5.0E-4                    -0.0165                  424.1303809302718
5.0E-4                    -0.0155                  422.3212163016684
5.0E-4                    -0.0145                  420.7280380891139
5.0E-4                    -0.0135                  419.26886607108463
5.0E-4                    -0.0125                  417.80969405305524
5.0E-4                    -0.0115                  416.4956899703266
5.0E-4                    -0.0105                  415.21539177579444
5.0E-4                    -0.0095                  413.9350935812623
5.0E-4                    -0.0085                  412.7297996510509
5.0E-4                    -0.0075                  411.5382353633616
5.0E-4                    -0.0065                  410.34447944724513
5.0E-4                    -0.0055                  409.1452995958425
5.0E-4                    -0.0045                  407.963284110602
5.0E-4                    -0.0035                  406.7454021038388
5.0E-4                    -0.0025                  405.43757892465135
5.0E-4                    -0.0015                  404.146338201223
5.0E-4                    -5.0E-4                  402.669710067529
5.0E-4                    5.0E-4                   400.7137324318157
5.0E-4                    0.0015                   398.7062685620381
5.0E-4                    0.0025                   395.691756966635
5.0E-4                    0.0035                   382.74924933384773
5.0E-4                    0.0045                   368.92967445045645
5.0E-4                    0.0055                   356.0712514256998
5.0E-4                    0.0065                   339.7687635512033
5.0E-4                    0.0075                   323.4662756767067
5.0E-4                    0.0085                   308.1260984253766
5.0E-4                    0.0095                   301.3692397332301
5.0E-4                    0.0105                   295.02508970886225
5.0E-4                    0.0115                   293.3296296017985
5.0E-4                    0.0125                   293.1776457145884
5.0E-4                    0.0135                   293.1155595667111
5.0E-4                    0.0145                   293.13565008436126
5.0E-4                    0.0155                   293.15284470494186
5.0E-4                    0.0165                   293.16226706990574
5.0E-4                    0.0175                   293.15946715339106
5.0E-4                    0.0185                   293.15557652410723
5.0E-4                    0.0195                   293.1569335035771
5.0E-4                    0.0205                   293.16783685335577
5.0E-4                    0.0215                   293.3113149034466
5.0E-4                    0.0225                   293.9806129597246
5.0E-4                    0.0235                   294.69153267124534
5.0E-4                    0.0245                   296.8143942922605
5.0E-4                    0.0255                   299.4407851350419
5.0E-4                    0.0265                   301.97193521483337
5.0E-4                    0.0275                   304.3054194208049
5.0E-4                    0.0285                   306.8963884702301
5.0E-4                    0.0295                   308.66394465345485
5.0E-4                    0.0305                   309.7589342952403
5.0E-4                    0.0315                   310.85704613226756
0.0015                    -0.0315                  477.20940501420455
0.0015                    -0.0305                  475.691246832142
0.0015                    -0.0295                  472.8063380939785
0.0015                    -0.0285                  468.42550582582766
0.0015                    -0.0275                  463.80239113695694
0.0015                    -0.0265                  458.3565419437758
0.0015                    -0.0255                  452.71475305011563
0.0015                    -0.0245                  447.5876317354571
0.0015                    -0.0235                  443.12951313000957
0.0015                    -0.0225                  438.76400593243375
0.0015                    -0.0215                  435.0022932243602
0.0015                    -0.0205                  432.1937274916174
0.0015                    -0.0195                  429.43377538911705
0.0015                    -0.0185                  427.0023488377297
0.0015                    -0.0175                  425.0788043034372
0.0015                    -0.0165                  423.19123799563033
0.0015                    -0.0155                  421.4770950036919
0.0015                    -0.0145                  419.98744138877873
0.0015                    -0.0135                  418.51170124670216
0.0015                    -0.0125                  417.1302312457249
0.0015                    -0.0115                  415.8499716478027
0.0015                    -0.0105                  414.5696889985161
0.0015                    -0.0095                  413.3310791860156
0.0015                    -0.0085                  412.12404896534713
0.0015                    -0.0075                  410.92845466306966
0.0015                    -0.0065                  409.7201503481537
0.0015                    -0.0055                  408.5048673959252
0.0015                    -0.0045                  407.3188837650381
0.0015                    -0.0035                  406.0073260406665
0.0015                    -0.0025                  404.6726770190687
0.0015                    -0.0015                  403.38143629564024
0.0015                    -5.0E-4                  401.6046225601268
0.0015                    5.0E-4                   399.78334576616606
0.0015                    0.0015                   397.5357021240733
0.0015                    0.0025                   393.58156387110284
0.0015                    0.0035                   386.62123500970404
0.0015                    0.0045                   373.29350924407
0.0015                    0.0055                   361.2831189526067
0.0015                    0.0065                   347.33656222368995
0.0015                    0.0075                   330.16319901418774
0.0015                    0.0085                   311.7907714292625
0.0015                    0.0095                   301.31603046969985
0.0015                    0.0105                   296.84439734134435
0.0015                    0.0115                   293.22883733056284
0.0015                    0.0125                   293.0745195614727
0.0015                    0.0135                   293.11731062807223
0.0015                    0.0145                   293.1517250885348
0.0015                    0.0155                   293.16667113530843
0.0015                    0.0165                   293.1780900274368
0.0015                    0.0175                   293.17999218342646
0.0015                    0.0185                   293.1712318278187
0.0015                    0.0195                   293.1607521228874
0.0015                    0.0205                   293.1981163294002
0.0015                    0.0215                   293.48746711233065
0.0015                    0.0225                   293.93299888192644
0.0015                    0.0235                   295.3998084669373
0.0015                    0.0245                   297.75766114925926
0.0015                    0.0255                   300.3015837449718
0.0015                    0.0265                   302.44110634611036
0.0015                    0.0275                   304.4640593308726
0.0015                    0.0285                   306.7451711813801
0.0015                    0.0295                   307.70452934793485
0.0015                    0.0305                   308.737435048608
0.0015                    0.0315                   309.6775657061789
0.0025                    -0.0315                  476.61508358363324
0.0025                    -0.0305                  474.77689332369977
0.0025                    -0.0295                  471.84130109200623
0.0025                    -0.0285                  467.4343405932795
0.0025                    -0.0275                  462.3455135372036
0.0025                    -0.0265                  456.7341802437848
0.0025                    -0.0255                  451.1427992195829
0.0025                    -0.0245                  446.07624928087876
0.0025                    -0.0235                  441.70124277075206
0.0025                    -0.0225                  437.3262362606254
0.0025                    -0.0215                  433.9394491610796
0.0025                    -0.0205                  431.1312182524868
0.0025                    -0.0195                  428.32298734389406
0.0025                    -0.0185                  426.2468152788361
0.0025                    -0.0175                  424.3230159476882
0.0025                    -0.0165                  422.39921661654034
0.0025                    -0.0155                  420.92056103127084
0.0025                    -0.0145                  419.4285152340717
0.0025                    -0.0135                  417.9526084389393
0.0025                    -0.0125                  416.678891425375
0.0025                    -0.0115                  415.3953662971019
0.0025                    -0.0105                  414.0991590020629
0.0025                    -0.0095                  412.8890231215756
0.0025                    -0.0085                  411.6794998790158
0.0025                    -0.0075                  410.3907172992739
0.0025                    -0.0065                  409.17454752338944
0.0025                    -0.0055                  407.95837774750504
0.0025                    -0.0045                  406.58713867783445
0.0025                    -0.0035                  405.2516198065724
0.0025                    -0.0025                  403.9161009353104
0.0025                    -0.0015                  402.2445409828475
0.0025                    -5.0E-4                  400.45898583556414
0.0025                    5.0E-4                   398.6734306882807
0.0025                    0.0015                   395.43433093763736
0.0025                    0.0025                   391.48034267030545
0.0025                    0.0035                   387.52635440297354
0.0025                    0.0045                   377.7452481222669
0.0025                    0.0055                   365.7309908871246
0.0025                    0.0065                   353.56192968220887
0.0025                    0.0075                   335.4335403077189
0.0025                    0.0085                   317.03091194100864
0.0025                    0.0095                   301.887176940364
0.0025                    0.0105                   298.26298089554365
0.0025                    0.0115                   294.6387848507233
0.0025                    0.0125                   293.0710799358094
0.0025                    0.0135                   293.1137654965282
0.0025                    0.0145                   293.15645105724695
0.0025                    0.0155                   293.18075735553754
0.0025                    0.0165                   293.19220558220286
0.0025                    0.0175                   293.19771715904074
0.0025                    0.0185                   293.18685167031686
0.0025                    0.0195                   293.1759861815931
0.0025                    0.0205                   293.3255955341531
0.0025                    0.0215                   293.61365940366136
0.0025                    0.0225                   293.975716835476
0.0025                    0.0235                   296.12064875958504
0.0025                    0.0245                   298.46357437527234
0.0025                    0.0255                   300.8223120792468
0.0025                    0.0265                   302.83505836200095
0.0025                    0.0275                   304.8478046447552
0.0025                    0.0285                   305.65055148801724
0.0025                    0.0295                   306.5728374723269
0.0025                    0.0305                   307.5277468007461
0.0025                    0.0315                   308.49808528009027
0.0035                    -0.0315                  475.49255348903046
0.0035                    -0.0305                  473.3500749968005
0.0035                    -0.0295                  471.0012024475403
0.0035                    -0.0285                  466.22591982609424
0.0035                    -0.0275                  460.3763862741482
0.0035                    -0.0265                  454.6208665449562
0.0035                    -0.0255                  449.1584086321595
0.0035                    -0.0245                  444.3177228261965
0.0035                    -0.0235                  439.7893674203833
0.0035                    -0.0225                  435.8000449211014
0.0035                    -0.0215                  432.95483272746975
0.0035                    -0.0205                  430.1401051934857
0.0035                    -0.0195                  427.76839751872376
0.0035                    -0.0185                  426.0411813654764
0.0035                    -0.0175                  424.1225579740703
0.0035                    -0.0165                  422.56056357806534
0.0035                    -0.0155                  421.2606733338595
0.0035                    -0.0145                  419.76862753666035
0.0035                    -0.0135                  418.46701323883553
0.0035                    -0.0125                  417.234175908864
0.0035                    -0.0115                  415.95065078059076
0.0035                    -0.0105                  414.612161226204
0.0035                    -0.0095                  413.31707956771834
0.0035                    -0.0085                  412.1075563251586
0.0035                    -0.0075                  410.49558558245894
0.0035                    -0.0065                  409.0833113945049
0.0035                    -0.0055                  407.819767460576
0.0035                    -0.0045                  405.91284611988465
0.0035                    -0.0035                  404.3910236423661
0.0035                    -0.0025                  402.88281859679535
0.0035                    -0.0015                  400.6929544964952
0.0035                    -5.0E-4                  398.83155846194006
0.0035                    5.0E-4                   396.5617546641748
0.0035                    0.0015                   393.3473359670177
0.0035                    0.0025                   389.4308711932624
0.0035                    0.0035                   384.95208835717693
0.0035                    0.0045                   379.2679069697396
0.0035                    0.0055                   367.2536497345974
0.0035                    0.0065                   352.3209740607893
0.0035                    0.0075                   335.2442742268282
0.0035                    0.0085                   316.841645860118
0.0035                    0.0095                   304.78978414869306
0.0035                    0.0105                   297.7401651854319
0.0035                    0.0115                   294.6284843969525
0.0035                    0.0125                   293.230910125442
0.0035                    0.0135                   293.08642672548245
0.0035                    0.0145                   293.14399404123395
0.0035                    0.0155                   293.2009820377188
0.0035                    0.0165                   293.2124302643841
0.0035                    0.0175                   293.2100279295239
0.0035                    0.0185                   293.20233060188224
0.0035                    0.0195                   293.2155006927667
0.0035                    0.0205                   293.28161072013376
0.0035                    0.0215                   293.5576798709713
0.0035                    0.0225                   294.4102306583305
0.0035                    0.0235                   295.90349907914947
0.0035                    0.0245                   298.26344650846875
0.0035                    0.0255                   300.8329943726008
0.0035                    0.0265                   303.05955093413036
0.0035                    0.0275                   304.2687913369271
0.0035                    0.0285                   304.5856649726685
0.0035                    0.0295                   305.30527134857016
0.0035                    0.0305                   306.2738217772832
0.0035                    0.0315                   307.32201630411595
0.0045                    -0.0315                  474.67490603427507
0.0045                    -0.0305                  472.3642612800034
0.0045                    -0.0295                  470.05803415106885
0.0045                    -0.0285                  464.3384751947913
0.0045                    -0.0275                  458.45264357239466
0.0045                    -0.0265                  452.5668119499981
0.0045                    -0.0255                  447.5228202611463
0.0045                    -0.0245                  442.6821344551833
0.0045                    -0.0235                  437.87749207001457
0.0045                    -0.0225                  434.83161617746515
0.0045                    -0.0215                  431.98640398383355
0.0045                    -0.0205                  429.1776651457666
0.0045                    -0.0195                  427.4504489925192
0.0045                    -0.0185                  425.723232839272
0.0045                    -0.0175                  424.04553805682076
0.0045                    -0.0165                  422.77042761915754
0.0045                    -0.0155                  421.4953171814943
0.0045                    -0.0145                  420.19676904950165
0.0045                    -0.0135                  418.9814180387319
0.0045                    -0.0125                  417.7660670279621
0.0045                    -0.0115                  416.4762432845119
0.0045                    -0.0105                  415.1251634503452
0.0045                    -0.0095                  413.77408361617853
0.0045                    -0.0085                  412.29608907557576
0.0045                    -0.0075                  410.65827980354027
0.0045                    -0.0065                  409.02047053150477
0.0045                    -0.0055                  407.3039687022623
0.0045                    -0.0045                  405.39704736157097
0.0045                    -0.0035                  403.5304274781598
0.0045                    -0.0025                  401.4998996169564
0.0045                    -0.0015                  399.3100355166562
0.0045                    -5.0E-4                  397.20413108831593
0.0045                    5.0E-4                   394.06409869933225
0.0045                    0.0015                   390.8496800021752
0.0045                    0.0025                   387.27702220148194
0.0045                    0.0035                   382.25063224854347
0.0045                    0.0045                   377.2242422956051
0.0045                    0.0055                   367.6085374781669
0.0045                    0.0065                   351.0800184393696
0.0045                    0.0075                   334.5514994005723
0.0045                    0.0085                   320.2655662591216
0.0045                    0.0095                   308.7251641326072
0.0045                    0.0105                   297.2173494753201
0.0045                    0.0115                   295.41760961066666
0.0045                    0.0125                   294.0200353391561
0.0045                    0.0135                   293.0628602177066
0.0045                    0.0145                   293.13206742315094
0.0045                    0.0155                   293.20127462859534
0.0045                    0.0165                   293.22495565530284
0.0045                    0.0175                   293.22147451979055
0.0045                    0.0185                   293.2178095334475
0.0045                    0.0195                   293.2773062056287
0.0045                    0.0205                   293.34341623299576
0.0045                    0.0215                   293.7566977339621
0.0045                    0.0225                   294.844744481185
0.0045                    0.0235                   295.9327912284078
0.0045                    0.0245                   298.1880038335823
0.0045                    0.0255                   300.75755169771423
0.0045                    0.0265                   303.11473049809365
0.0045                    0.0275                   303.43646696061506
0.0045                    0.0285                   303.7582034231365
0.0045                    0.0295                   304.0840899420347
0.0045                    0.0305                   305.17979776437903
0.0045                    0.0315                   306.3044028377108
0.0055                    -0.0315                  473.8572585795196
0.0055                    -0.0305                  471.5735145795243
0.0055                    -0.0295                  469.1768694799993
0.0055                    -0.0285                  463.3705943358971
0.0055                    -0.0275                  457.48750485568155
0.0055                    -0.0265                  451.84500600105065
0.0055                    -0.0255                  446.65827719172773
0.0055                    -0.0245                  441.76771799386734
0.0055                    -0.0235                  437.74964128178556
0.0055                    -0.0225                  434.8705000068576
0.0055                    -0.0215                  432.0350780802243
0.0055                    -0.0205                  430.06636464802136
0.0055                    -0.0195                  428.44259569772146
0.0055                    -0.0185                  426.71440790631243
0.0055                    -0.0175                  425.48723721312734
0.0055                    -0.0165                  424.2459958827129
0.0055                    -0.0155                  422.9666648977883
0.0055                    -0.0145                  421.4941228391925
0.0055                    -0.0135                  420.2511803338547
0.0055                    -0.0125                  418.93358375920894
0.0055                    -0.0115                  416.4586475685878
0.0055                    -0.0105                  415.11125595385795
0.0055                    -0.0095                  413.4828083807432
0.0055                    -0.0085                  410.866905012182
0.0055                    -0.0075                  409.2368826208678
0.0055                    -0.0065                  407.2840193282959
0.0055                    -0.0055                  404.85329232945094
0.0055                    -0.0045                  402.95199457816375
0.0055                    -0.0035                  400.77022799828404
0.0055                    -0.0025                  398.3868399524599
0.0055                    -0.0015                  396.1988095024247
0.0055                    -5.0E-4                  393.7226865233355
0.0055                    5.0E-4                   390.7079102098065
0.0055                    0.0015                   387.4891592424521
0.0055                    0.0025                   383.8569067976963
0.0055                    0.0035                   379.1430150880791
0.0055                    0.0045                   374.11435754478117
0.0055                    0.0055                   368.49937726014934
0.0055                    0.0065                   352.87000535412733
0.0055                    0.0075                   336.24858453491214
0.0055                    0.0085                   319.83963940151887
0.0055                    0.0095                   308.26839670148934
0.0055                    0.0105                   299.14198553143405
0.0055                    0.0115                   295.350614293588
0.0055                    0.0125                   293.9454732336736
0.0055                    0.0135                   293.2076201048241
0.0055                    0.0145                   293.1341339584988
0.0055                    0.0155                   293.2017282778336
0.0055                    0.0165                   293.2444860886737
0.0055                    0.0175                   293.24109262874583
0.0055                    0.0185                   293.2450717378188
0.0055                    0.0195                   293.282687007951
0.0055                    0.0205                   293.3485070746896
0.0055                    0.0215                   293.65313997920015
0.0055                    0.0225                   294.6712890374539
0.0055                    0.0235                   296.0040851009103
0.0055                    0.0245                   298.03732457137664
0.0055                    0.0255                   300.60342210542547
0.0055                    0.0265                   302.3060198972119
0.0055                    0.0275                   303.0342671804351
0.0055                    0.0285                   303.3560036429565
0.0055                    0.0295                   303.67585950570555
0.0055                    0.0305                   304.44808519310715
0.0055                    0.0315                   305.2867893713057
0.0065                    -0.0315                  473.1682995836004
0.0065                    -0.0305                  470.8071655805026
0.0065                    -0.0295                  468.14170569883044
0.0065                    -0.0285                  462.3354305547282
0.0065                    -0.0275                  456.55380312069343
0.0065                    -0.0265                  451.23131067845804
0.0065                    -0.0255                  445.9088182362227
0.0065                    -0.0245                  440.9546726958837
0.0065                    -0.0235                  438.0371400136963
0.0065                    -0.0225                  435.1196073315088
0.0065                    -0.0215                  432.60938234084443
0.0065                    -0.0205                  431.13161947750586
0.0065                    -0.0195                  429.65385661416724
0.0065                    -0.0185                  428.20757906308245
0.0065                    -0.0175                  427.09369838443513
0.0065                    -0.0165                  425.9530090912337
0.0065                    -0.0155                  424.5544414459318
0.0065                    -0.0145                  423.0722807955199
0.0065                    -0.0135                  421.67356967178875
0.0065                    -0.0125                  419.51469602802
0.0065                    -0.0115                  416.9683969532088
0.0065                    -0.0105                  414.9768131795971
0.0065                    -0.0095                  412.39964826468884
0.0065                    -0.0085                  409.5434992941313
0.0065                    -0.0075                  407.4187304782601
0.0065                    -0.0065                  404.8047181501851
0.0065                    -0.0055                  402.11181670725205
0.0065                    -0.0045                  399.96697036451707
0.0065                    -0.0035                  397.41184121350653
0.0065                    -0.0025                  394.8567120624959
0.0065                    -0.0015                  392.5300878096346
0.0065                    -5.0E-4                  389.82780395908026
0.0065                    5.0E-4                   387.12395042189246
0.0065                    0.0015                   383.71901530801523
0.0065                    0.0025                   379.91596181639466
0.0065                    0.0035                   375.9356865337742
0.0065                    0.0045                   370.58076423487654
0.0065                    0.0055                   364.87955974299706
0.0065                    0.0065                   355.3388953487038
0.0065                    0.0075                   338.1998882659874
0.0065                    0.0085                   320.83256881531594
0.0065                    0.0095                   306.94732292370844
0.0065                    0.0105                   301.32926900348343
0.0065                    0.0115                   295.71121508325837