% Model:              SIMBench260525粗网格.mph
% Version:            COMSOL 6.2.0.339
% Date:               May 27 2026, 20:01
% Dimension:          2
% Nodes:              4096
% Expressions:        1
% Description:        温度
% Length unit:        m
% x                       y                        T (K)
5.0E-4                    -0.0315                  310.3940985765229
5.0E-4                    -0.0305                  309.56631534498183
5.0E-4                    -0.0295                  308.73853211344067
5.0E-4                    -0.0285                  307.9107488818996
5.0E-4                    -0.0275                  307.0829656503585
5.0E-4                    -0.0265                  306.65763662451354
5.0E-4                    -0.0255                  306.32221400149785
5.0E-4                    -0.0245                  305.9867913784822
5.0E-4                    -0.0235                  305.65136875546654
5.0E-4                    -0.0225                  305.3205873386785
5.0E-4                    -0.0215                  305.1411839137036
5.0E-4                    -0.0205                  304.99611550252143
5.0E-4                    -0.0195                  304.8510470913393
5.0E-4                    -0.0185                  304.7059786801571
5.0E-4                    -0.0175                  304.55308885185667
5.0E-4                    -0.0165                  304.40865950461534
5.0E-4                    -0.0155                  304.30744958807486
5.0E-4                    -0.0145                  304.2062396715343
5.0E-4                    -0.0135                  304.1050297549938
5.0E-4                    -0.0125                  303.9819892327785
5.0E-4                    -0.0115                  303.8359340299523
5.0E-4                    -0.0105                  303.71079237852985
5.0E-4                    -0.0095                  303.5856507271074
5.0E-4                    -0.0085                  303.46050907568497
5.0E-4                    -0.0075                  303.35064965115663
5.0E-4                    -0.0065                  303.21409181681406
5.0E-4                    -0.0055                  303.0612585314122
5.0E-4                    -0.0045                  302.9084252460103
5.0E-4                    -0.0035                  302.7555919606084
5.0E-4                    -0.0025                  302.65729976164084
5.0E-4                    -0.0015                  302.2385260801963
5.0E-4                    -5.0E-4                  301.76644218742075
5.0E-4                    5.0E-4                   301.29435829464524
5.0E-4                    0.0015                   300.82227440186966
5.0E-4                    0.0025                   300.48517433062966
5.0E-4                    0.0035                   299.36883803082264
5.0E-4                    0.0045                   298.2463294487717
5.0E-4                    0.0055                   297.1238208667207
5.0E-4                    0.0065                   296.00131228466967
5.0E-4                    0.0075                   295.28664402916684
5.0E-4                    0.0085                   295.214358330711
5.0E-4                    0.0095                   295.14207263225506
5.0E-4                    0.0105                   295.06978693379915
5.0E-4                    0.0115                   294.9975012353433
5.0E-4                    0.0125                   294.43686468332675
5.0E-4                    0.0135                   294.07661613046554
5.0E-4                    0.0145                   293.7163675776043
5.0E-4                    0.0155                   293.356119024743
5.0E-4                    0.0165                   293.15657736466136
5.0E-4                    0.0175                   293.15991355904845
5.0E-4                    0.0185                   293.1632497534355
5.0E-4                    0.0195                   293.16658594782257
5.0E-4                    0.0205                   293.1901367941583
5.0E-4                    0.0215                   293.1974980446442
5.0E-4                    0.0225                   293.20485929513
5.0E-4                    0.0235                   293.2122205456159
5.0E-4                    0.0245                   293.26187142851234
5.0E-4                    0.0255                   293.261728234888
5.0E-4                    0.0265                   293.2586447763041
5.0E-4                    0.0275                   293.25556131772026
5.0E-4                    0.0285                   293.2659499541522
5.0E-4                    0.0295                   293.2895844623294
5.0E-4                    0.0305                   293.31321897050657
5.0E-4                    0.0315                   293.3349236368349
0.0015                    -0.0315                  309.9889396426083
0.0015                    -0.0305                  309.1813689169747
0.0015                    -0.0295                  308.3535856854336
0.0015                    -0.0285                  307.5258024538925
0.0015                    -0.0275                  306.8309245559343
0.0015                    -0.0265                  306.48106435067746
0.0015                    -0.0255                  306.14040190779633
0.0015                    -0.0245                  305.8049792847807
0.0015                    -0.0235                  305.46955666176507
0.0015                    -0.0225                  305.2209513769619
0.0015                    -0.0215                  305.01673744910005
0.0015                    -0.0205                  304.8606681335973
0.0015                    -0.0195                  304.71559972241505
0.0015                    -0.0185                  304.57053131123297
0.0015                    -0.0175                  304.3851060766617
0.0015                    -0.0165                  304.18935994937704
0.0015                    -0.0155                  304.0845400217264
0.0015                    -0.0145                  303.9833301051859
0.0015                    -0.0135                  303.8821201886454
0.0015                    -0.0125                  303.7059408736392
0.0015                    -0.0115                  303.5248770677932
0.0015                    -0.0105                  303.3997354163708
0.0015                    -0.0095                  303.27459376494835
0.0015                    -0.0085                  303.1494521135259
0.0015                    -0.0075                  303.06545809700657
0.0015                    -0.0065                  302.9692270587817
0.0015                    -0.0055                  302.81639377337984
0.0015                    -0.0045                  302.6635604879779
0.0015                    -0.0035                  302.51819947705616
0.0015                    -0.0025                  302.4824794302715
0.0015                    -0.0015                  302.3157807868192
0.0015                    -5.0E-4                  301.8436968940436
0.0015                    5.0E-4                   301.37161300126803
0.0015                    0.0015                   300.94097051773775
0.0015                    0.0025                   300.70257166055165
0.0015                    0.0035                   300.0897519946021
0.0015                    0.0045                   298.9672434125511
0.0015                    0.0055                   297.8447348305001
0.0015                    0.0065                   296.89177000152785
0.0015                    0.0075                   296.2459884224707
0.0015                    0.0085                   295.93411292701273
0.0015                    0.0095                   295.8618272285569
0.0015                    0.0105                   295.7895415301009
0.0015                    0.0115                   295.30794229261244
0.0015                    0.0125                   294.49887973567417
0.0015                    0.0135                   294.10763187405155
0.0015                    0.0145                   293.7473833211903
0.0015                    0.0155                   293.4271611562556
0.0015                    0.0165                   293.16479649791347
0.0015                    0.0175                   293.14875834094534
0.0015                    0.0185                   293.15209453533237
0.0015                    0.0195                   293.1738757767052
0.0015                    0.0205                   293.2153858238538
0.0015                    0.0215                   293.2227470743396
0.0015                    0.0225                   293.23010832482544
0.0015                    0.0235                   293.2790167968322
0.0015                    0.0245                   293.33968083415266
0.0015                    0.0255                   293.379060973515
0.0015                    0.0265                   293.3847983098095
0.0015                    0.0275                   293.38171485122575
0.0015                    0.0285                   293.3923297109282
0.0015                    0.0295                   293.4159642191054
0.0015                    0.0305                   293.43380920173604
0.0015                    0.0315                   293.43260952773824
0.0025                    -0.0315                  309.58359174670454
0.0025                    -0.0305                  308.77658790703816
0.0025                    -0.0295                  307.96863925742645
0.0025                    -0.0285                  307.1408560258854
0.0025                    -0.0275                  306.65848765342656
0.0025                    -0.0265                  306.30862744816966
0.0025                    -0.0255                  305.9587672429128
0.0025                    -0.0245                  305.6231671910792
0.0025                    -0.0235                  305.3255293431073
0.0025                    -0.0225                  305.12131541524536
0.0025                    -0.0215                  304.91710148738355
0.0025                    -0.0205                  304.7252207646731
0.0025                    -0.0195                  304.5801523534909
0.0025                    -0.0185                  304.4128694287515
0.0025                    -0.0175                  304.2171233014668
0.0025                    -0.0165                  304.02137717418213
0.0025                    -0.0155                  303.8616304553781
0.0025                    -0.0145                  303.76042053883754
0.0025                    -0.0135                  303.61640066401213
0.0025                    -0.0125                  303.4298925144999
0.0025                    -0.0115                  303.24338436498755
0.0025                    -0.0105                  303.0886784542117
0.0025                    -0.0095                  302.96353680278924
0.0025                    -0.0085                  302.8631167822663
0.0025                    -0.0075                  302.7802665428565
0.0025                    -0.0065                  302.69741630344663
0.0025                    -0.0055                  302.5715290153475
0.0025                    -0.0045                  302.4186957299456
0.0025                    -0.0035                  302.3433791456867
0.0025                    -0.0025                  302.3076590989021
0.0025                    -0.0015                  302.27193905211743
0.0025                    -5.0E-4                  301.9209516006665
0.0025                    5.0E-4                   301.4488677078909
0.0025                    0.0015                   301.15836784765975
0.0025                    0.0025                   300.91996899047365
0.0025                    0.0035                   300.68157013328755
0.0025                    0.0045                   299.68815737633054
0.0025                    0.0055                   298.5657168254143
0.0025                    0.0065                   297.9199352463572
0.0025                    0.0075                   297.2741536673002
0.0025                    0.0085                   296.6538675233145
0.0025                    0.0095                   296.58158182485863
0.0025                    0.0105                   296.3182914670033
0.0025                    0.0115                   295.509228910065
0.0025                    0.0125                   294.70016635312675
0.0025                    0.0135                   294.1386476176375
0.0025                    0.0145                   293.7798537816411
0.0025                    0.0155                   293.517489123299
0.0025                    0.0165                   293.2551244649569
0.0025                    0.0175                   293.1376031228422
0.0025                    0.0185                   293.1453607812944
0.0025                    0.0195                   293.18817739704815
0.0025                    0.0205                   293.2309940128019
0.0025                    0.0215                   293.2479961040351
0.0025                    0.0225                   293.2812248916273
0.0025                    0.0235                   293.3536528902557
0.0025                    0.0245                   293.417490239793
0.0025                    0.0255                   293.4568703791553
0.0025                    0.0265                   293.4962505185176
0.0025                    0.0275                   293.5078683847311
0.0025                    0.0285                   293.51870946770424
0.0025                    0.0295                   293.53269476663723
0.0025                    0.0305                   293.5314950926395
0.0025                    0.0315                   293.5302954186417
0.0035                    -0.0315                  309.17824385080087
0.0035                    -0.0305                  308.37124001113443
0.0035                    -0.0295                  307.5642361714681
0.0035                    -0.0285                  306.8400969187642
0.0035                    -0.0275                  306.4860507509187
0.0035                    -0.0265                  306.13619054566186
0.0035                    -0.0255                  305.78633034040496
0.0035                    -0.0245                  305.44135509737765
0.0035                    -0.0235                  305.22589338139073
0.0035                    -0.0225                  305.0216794535289
0.0035                    -0.0215                  304.817465525667
0.0035                    -0.0205                  304.6132515978052
0.0035                    -0.0195                  304.44063278084127
0.0035                    -0.0185                  304.24488665355653
0.0035                    -0.0175                  304.0491405262719
0.0035                    -0.0165                  303.85339439898723
0.0035                    -0.0155                  303.65764827170256
0.0035                    -0.0145                  303.52686045438514
0.0035                    -0.0135                  303.34035230487285
0.0035                    -0.0125                  303.15384415536056
0.0035                    -0.0115                  302.96733600584827
0.0035                    -0.0105                  302.780827856336
0.0035                    -0.0095                  302.66077546752604
0.0035                    -0.0085                  302.5779252281162
0.0035                    -0.0075                  302.4950749887064
0.0035                    -0.0065                  302.41222474929657
0.0035                    -0.0055                  302.32666425731514
0.0035                    -0.0045                  302.204278861102
0.0035                    -0.0035                  302.16855881431735
0.0035                    -0.0025                  302.1328387675327
0.0035                    -0.0015                  302.097118720748
0.0035                    -5.0E-4                  301.99820630728937
0.0035                    5.0E-4                   301.6141640347679
0.0035                    0.0015                   301.3757651775818
0.0035                    0.0025                   301.1373663203957
0.0035                    0.0035                   300.89896746320954
0.0035                    0.0045                   300.4090713401101
0.0035                    0.0055                   299.59388207024375
0.0035                    0.0065                   298.94810049118666
0.0035                    0.0075                   298.3023189121295
0.0035                    0.0085                   297.6565373330725
0.0035                    0.0095                   297.30133642116033
0.0035                    0.0105                   296.51957808445593
0.0035                    0.0115                   295.7105155275176
0.0035                    0.0125                   294.9014529705794
0.0035                    0.0135                   294.1696633612235
0.0035                    0.0145                   293.87018174868456
0.0035                    0.0155                   293.60781709034245
0.0035                    0.0165                   293.34545243200034
0.0035                    0.0175                   293.1264479047391
0.0035                    0.0185                   293.1596624016373
0.0035                    0.0195                   293.20247901739106
0.0035                    0.0205                   293.24529563314485
0.0035                    0.0215                   293.28343298642244
0.0035                    0.0225                   293.3558609850508
0.0035                    0.0235                   293.4282889836792
0.0035                    0.0245                   293.49529964543336
0.0035                    0.0255                   293.5346797847956
0.0035                    0.0265                   293.57405992415795
0.0035                    0.0275                   293.6134400635202
0.0035                    0.0285                   293.6315803315384
0.0035                    0.0295                   293.6303806575406
0.0035                    0.0305                   293.6291809835429
0.0035                    0.0315                   293.627981309545
0.0045                    -0.0315                  308.7728959548972
0.0045                    -0.0305                  307.97186800750023
0.0045                    -0.0295                  307.3720887396527
0.0045                    -0.0285                  306.77230947180516
0.0045                    -0.0275                  306.38149094397016
0.0045                    -0.0265                  306.02447741251757
0.0045                    -0.0255                  305.66746388106503
0.0045                    -0.0245                  305.36872353838226
0.0045                    -0.0235                  305.1506018230292
0.0045                    -0.0225                  304.945705777002
0.0045                    -0.0215                  304.74080973097483
0.0045                    -0.0205                  304.5359136849476
0.0045                    -0.0195                  304.17563474936014
0.0045                    -0.0185                  303.98482391992036
0.0045                    -0.0175                  303.7940130904805
0.0045                    -0.0165                  303.60320226104074
0.0045                    -0.0155                  303.4123914316009
0.0045                    -0.0145                  303.18585623942687
0.0045                    -0.0135                  303.0016616757656
0.0045                    -0.0125                  302.8174671121044
0.0045                    -0.0115                  302.63327254844313
0.0045                    -0.0105                  302.44907798478187
0.0045                    -0.0095                  302.34417715630934
0.0045                    -0.0085                  302.26180915785136
0.0045                    -0.0075                  302.1794411593934
0.0045                    -0.0065                  302.09707316093534
0.0045                    -0.0055                  302.0147051624774
0.0045                    -0.0045                  301.98350602140476
0.0045                    -0.0035                  301.9474862408552
0.0045                    -0.0025                  301.9114664603056
0.0045                    -0.0015                  301.87544667975595
0.0045                    -5.0E-4                  301.83942689920644
0.0045                    5.0E-4                   301.7124250513137
0.0045                    0.0015                   301.4655394629189
0.0045                    0.0025                   301.2186538745242
0.0045                    0.0035                   300.9717682861295
0.0045                    0.0045                   300.76766934762077
0.0045                    0.0055                   300.266065965809
0.0045                    0.0065                   299.60660298436466
0.0045                    0.0075                   298.94714000292026
0.0045                    0.0085                   298.28767702147593
0.0045                    0.0095                   297.439952655242
0.0045                    0.0105                   296.63505727434256
0.0045                    0.0115                   295.8305942384387
0.0045                    0.0125                   295.0261312025349
0.0045                    0.0135                   294.2669449800904
0.0045                    0.0145                   293.916984790467
0.0045                    0.0155                   293.65086070142803
0.0045                    0.0165                   293.38473661238913
0.0045                    0.0175                   293.15995408928995
0.0045                    0.0185                   293.1607408855592
0.0045                    0.0195                   293.2027212878921
0.0045                    0.0205                   293.24470169022493
0.0045                    0.0215                   293.33038665138315
0.0045                    0.0225                   293.4148065638033
0.0045                    0.0235                   293.4939752787526
0.0045                    0.0245                   293.57225823891866
0.0045                    0.0255                   293.6094682495684
0.0045                    0.0265                   293.64667826021815
0.0045                    0.0275                   293.6838882708679
0.0045                    0.0285                   293.7039464331007
0.0045                    0.0295                   293.7178109546858
0.0045                    0.0305                   293.7268668744462
0.0045                    0.0315                   293.7256672004484
0.0055                    -0.0315                  308.5321325379947
0.0055                    -0.0305                  307.9323532701471
0.0055                    -0.0295                  307.3325740022995
0.0055                    -0.0285                  306.73279473445194
0.0055                    -0.0275                  306.2798985006287
0.0055                    -0.0265                  305.9228849691761
0.0055                    -0.0255                  305.59232584980225
0.0055                    -0.0245                  305.3359575948853
0.0055                    -0.0235                  305.08858029606813
0.0055                    -0.0225                  304.8836842500409
0.0055                    -0.0215                  304.6787882040138
0.0055                    -0.0205                  304.37842171583816
0.0055                    -0.0195                  303.9611618603087
0.0055                    -0.0185                  303.64689568628984
0.0055                    -0.0175                  303.45608485685
0.0055                    -0.0165                  303.26527402741027
0.0055                    -0.0155                  303.0467308035999
0.0055                    -0.0145                  302.7856638758648
0.0055                    -0.0135                  302.5752976040714
0.0055                    -0.0125                  302.39110304041014
0.0055                    -0.0115                  302.20690847674894
0.0055                    -0.0105                  302.06113996402956
0.0055                    -0.0095                  301.97319105253484
0.0055                    -0.0085                  301.8896024012731
0.0055                    -0.0075                  301.80723440281514
0.0055                    -0.0065                  301.72486640435716
0.0055                    -0.0055                  301.6763298933954
0.0055                    -0.0045                  301.66937173214944
0.0055                    -0.0035                  301.6368370536776
0.0055                    -0.0025                  301.600817273128
0.0055                    -0.0015                  301.5647974925784
0.0055                    -5.0E-4                  301.57015530186493
0.0055                    5.0E-4                   301.6058801097283
0.0055                    0.0015                   301.35899452133356
0.0055                    0.0025                   301.11210893293884
0.0055                    0.0035                   300.8652233445441
0.0055                    0.0045                   300.7571607166587
0.0055                    0.0055                   300.57005958748056
0.0055                    0.0065                   299.9105966060362
0.0055                    0.0075                   299.25113362459183
0.0055                    0.0085                   298.5412135869095
0.0055                    0.0095                   297.5628346272812
0.0055                    0.0105                   296.67326344309527
0.0055                    0.0115                   295.86880040719143
0.0055                    0.0125                   295.0643373712876
0.0055                    0.0135                   294.4293191986565
0.0055                    0.0145                   293.9166808990124
0.0055                    0.0155                   293.6505568099735
0.0055                    0.0165                   293.3844327209347
0.0055                    0.0175                   293.2241614894299
0.0055                    0.0185                   293.1549544627824
0.0055                    0.0195                   293.19653753111754
0.0055                    0.0205                   293.23851793345034
0.0055                    0.0215                   293.3454182615591
0.0055                    0.0225                   293.4566207719901
0.0055                    0.0235                   293.5357894869394
0.0055                    0.0245                   293.61135713462613
0.0055                    0.0255                   293.67899890093116
0.0055                    0.0265                   293.7162089115809
0.0055                    0.0275                   293.7534189222307
0.0055                    0.0285                   293.7687464497654
0.0055                    0.0295                   293.78261097135044
0.0055                    0.0305                   293.79647549293554
0.0055                    0.0315                   293.81034001452065
0.0065                    -0.0315                  308.57948381425365
0.0065                    -0.0305                  307.9213369210081
0.0065                    -0.0295                  307.29305926494635
0.0065                    -0.0285                  306.6932799970988
0.0065                    -0.0275                  306.17830605728716
0.0065                    -0.0265                  305.8212925258346
0.0065                    -0.0255                  305.55955990630525
0.0065                    -0.0245                  305.3031916513884
0.0065                    -0.0235                  305.04682339647144
0.0065                    -0.0225                  304.82166272307995
0.0065                    -0.0215                  304.585877810105
0.0065                    -0.0205                  304.1686179545756
0.0065                    -0.0195                  303.7513580990461
0.0065                    -0.0185                  303.3340982435167
0.0065                    -0.0175                  303.11815662321953
0.0065                    -0.0165                  302.9249342096412
0.0065                    -0.0155                  302.6638672819061
0.0065                    -0.0145                  302.402800354171
0.0065                    -0.0135                  302.1489335323772
0.0065                    -0.0125                  301.964738968716
0.0065                    -0.0115                  301.78054440505474
0.0065                    -0.0105                  301.6922213581397
0.0065                    -0.0095                  301.6042724466449
0.0065                    -0.0085                  301.5173956446949
0.0065                    -0.0075                  301.4350276462369
0.0065                    -0.0065                  301.3557582589222
0.0065                    -0.0055                  301.3488000976762
0.0065                    -0.0045                  301.3418419364302
0.0065                    -0.0035                  301.32618786650005
0.0065                    -0.0025                  301.2901680859504
0.0065                    -0.0015                  301.26540058263646
0.0065                    -5.0E-4                  301.30286083162116
0.0065                    5.0E-4                   301.3403210806059
0.0065                    0.0015                   301.25244957974814
0.0065                    0.0025                   301.0055639913535
0.0065                    0.0035                   300.82549575765427
0.0065                    0.0045                   300.7466520856966
0.0065                    0.0055                   300.6678084137389
0.0065                    0.0065                   300.21459022770773
0.0065                    0.0075                   299.55512724626345
0.0065                    0.0085                   298.6640955589487
0.0065                    0.0095                   297.6857165993205
0.0065                    0.0105                   296.7114696118479
0.0065                    0.0115                   295.90700657594414