% Model:              SIMBench260525.mph
% Version:            COMSOL 6.2.0.339
% Date:               May 27 2026, 17:33
% Dimension:          2
% Nodes:              4096
% Expressions:        1
% Description:        温度
% Length unit:        m
% x                       y                        T (K)
5.0E-4                    -0.0315                  337.3984934954838
5.0E-4                    -0.0305                  335.7908005007088
5.0E-4                    -0.0295                  334.17183267186624
5.0E-4                    -0.0285                  331.33093395762825
5.0E-4                    -0.0275                  328.541182742846
5.0E-4                    -0.0265                  325.7514315280638
5.0E-4                    -0.0255                  323.3595460805403
5.0E-4                    -0.0245                  321.4088016423475
5.0E-4                    -0.0235                  319.45805720415467
5.0E-4                    -0.0225                  318.54337571675006
5.0E-4                    -0.0215                  317.5444959727885
5.0E-4                    -0.0205                  316.54561622882704
5.0E-4                    -0.0195                  316.0624086299769
5.0E-4                    -0.0185                  315.37339536432034
5.0E-4                    -0.0175                  314.68438209866383
5.0E-4                    -0.0165                  314.3718253696077
5.0E-4                    -0.0155                  313.8019265058859
5.0E-4                    -0.0145                  313.2320276421642
5.0E-4                    -0.0135                  313.02486925067717
5.0E-4                    -0.0125                  312.64051907308055
5.0E-4                    -0.0115                  312.25616889548394
5.0E-4                    -0.0105                  312.0140230476702
5.0E-4                    -0.0095                  311.61365738048136
5.0E-4                    -0.0085                  311.2132917132925
5.0E-4                    -0.0075                  310.6433105703619
5.0E-4                    -0.0065                  309.80496311975514
5.0E-4                    -0.0055                  308.9666156691484
5.0E-4                    -0.0045                  307.58543840416394
5.0E-4                    -0.0035                  304.9479952938937
5.0E-4                    -0.0025                  302.3105521836235
5.0E-4                    -0.0015                  300.2450518432571
5.0E-4                    -5.0E-4                  298.39479022377077
5.0E-4                    5.0E-4                   296.5445286042845
5.0E-4                    0.0015                   295.020857989823
5.0E-4                    0.0025                   295.0520414607344
5.0E-4                    0.0035                   295.0832249316458
5.0E-4                    0.0045                   294.162816671833
5.0E-4                    0.0055                   293.6849558366857
5.0E-4                    0.0065                   293.2375640774331
5.0E-4                    0.0075                   293.1305564122828
5.0E-4                    0.0085                   293.1337700225729
5.0E-4                    0.0095                   293.3171814832199
5.0E-4                    0.0105                   293.99785920137197
5.0E-4                    0.0115                   294.7167529891652
5.0E-4                    0.0125                   296.0046118943336
5.0E-4                    0.0135                   296.1304574394969
5.0E-4                    0.0145                   296.25630298466024
5.0E-4                    0.0155                   297.9504494826092
5.0E-4                    0.0165                   299.9775363096268
5.0E-4                    0.0175                   301.95085728165145
5.0E-4                    0.0185                   303.5878089394704
5.0E-4                    0.0195                   305.42305462325436
5.0E-4                    0.0205                   306.9882235722936
5.0E-4                    0.0215                   307.7161978999382
5.0E-4                    0.0225                   308.43882287788097
5.0E-4                    0.0235                   308.96175332022267
5.0E-4                    0.0245                   309.61500403288284
5.0E-4                    0.0255                   310.3595379821832
5.0E-4                    0.0265                   310.8493909685562
5.0E-4                    0.0275                   312.3836780670142
5.0E-4                    0.0285                   313.97774432712936
5.0E-4                    0.0295                   315.51744821500597
5.0E-4                    0.0305                   317.02737065222567
5.0E-4                    0.0315                   318.53729308944537
0.0015                    -0.0315                  336.476267576887
0.0015                    -0.0305                  335.17871084004366
0.0015                    -0.0295                  333.1162857809634
0.0015                    -0.0285                  329.773690925923
0.0015                    -0.0275                  326.6898391995326
0.0015                    -0.0265                  324.09864958589753
0.0015                    -0.0255                  321.6725261351719
0.0015                    -0.0245                  319.5141828569622
0.0015                    -0.0235                  318.26456477657433
0.0015                    -0.0225                  317.6319904759649
0.0015                    -0.0215                  316.7701383947483
0.0015                    -0.0205                  316.11420758310896
0.0015                    -0.0195                  315.8409620002037
0.0015                    -0.0185                  315.320515598198
0.0015                    -0.0175                  314.8915372889681
0.0015                    -0.0165                  314.76605707802423
0.0015                    -0.0155                  314.3828454110295
0.0015                    -0.0145                  314.05390271166743
0.0015                    -0.0135                  314.0034609586611
0.0015                    -0.0125                  313.7613702365686
0.0015                    -0.0115                  313.4842786609372
0.0015                    -0.0105                  313.33052664986985
0.0015                    -0.0095                  313.03493269312736
0.0015                    -0.0085                  312.5723966874559
0.0015                    -0.0075                  312.0357457093666
0.0015                    -0.0065                  311.32498926433556
0.0015                    -0.0055                  310.34537195718093
0.0015                    -0.0045                  309.1935010564962
0.0015                    -0.0035                  307.1814574693823
0.0015                    -0.0025                  304.8463604854349
0.0015                    -0.0015                  302.8828761968409
0.0015                    -5.0E-4                  300.984956448283
0.0015                    5.0E-4                   299.0935554618999
0.0015                    0.0015                   297.1513989552745
0.0015                    0.0025                   296.4139446048984
0.0015                    0.0035                   295.7718205202127
0.0015                    0.0045                   294.3902389334118
0.0015                    0.0055                   293.6527198254599
0.0015                    0.0065                   293.3427788057021
0.0015                    0.0075                   293.0991741504446
0.0015                    0.0085                   293.11960218111767
0.0015                    0.0095                   293.5153501394235
0.0015                    0.0105                   294.01188044179753
0.0015                    0.0115                   295.13516418686567
0.0015                    0.0125                   297.02334817679514
0.0015                    0.0135                   297.87545715730255
0.0015                    0.0145                   298.8435791033993
0.0015                    0.0155                   300.4881825691299
0.0015                    0.0165                   302.41468485633385
0.0015                    0.0175                   304.03098794635594
0.0015                    0.0185                   305.4759403720019
0.0015                    0.0195                   307.2738657752309
0.0015                    0.0205                   308.14211457521975
0.0015                    0.0215                   308.87860846670884
0.0015                    0.0225                   309.56306531670174
0.0015                    0.0235                   309.7948892506478
0.0015                    0.0245                   310.1923292021197
0.0015                    0.0255                   310.7905011659068
0.0015                    0.0265                   311.10265848291886
0.0015                    0.0275                   311.9679977110187
0.0015                    0.0285                   313.5431339048284
0.0015                    0.0295                   315.05312069248845
0.0015                    0.0305                   316.56306828239286
0.0015                    0.0315                   318.0158932354191
0.0025                    -0.0315                  335.5540416582901
0.0025                    -0.0305                  333.7335499675308
0.0025                    -0.0295                  331.2754270855269
0.0025                    -0.0285                  328.0071573197688
0.0025                    -0.0275                  324.9258193706532
0.0025                    -0.0265                  322.464138175492
0.0025                    -0.0255                  320.0431533510755
0.0025                    -0.0245                  318.0988288821756
0.0025                    -0.0235                  317.43416093512974
0.0025                    -0.0225                  316.75199095956293
0.0025                    -0.0215                  316.1532746316454
0.0025                    -0.0205                  315.8894853579343
0.0025                    -0.0195                  315.62569608422314
0.0025                    -0.0185                  315.4419230003432
0.0025                    -0.0175                  315.3330930030322
0.0025                    -0.0165                  315.217559830699
0.0025                    -0.0155                  315.1745283368805
0.0025                    -0.0145                  315.149729952936
0.0025                    -0.0135                  315.1041044959261
0.0025                    -0.0125                  315.06508111336086
0.0025                    -0.0115                  314.9130267211505
0.0025                    -0.0105                  314.7534033267259
0.0025                    -0.0095                  314.51359778006093
0.0025                    -0.0085                  313.9559489683656
0.0025                    -0.0075                  313.41779254455497
0.0025                    -0.0065                  312.76637345984483
0.0025                    -0.0055                  311.5884019221346
0.0025                    -0.0045                  310.437890007488
0.0025                    -0.0035                  309.2429934587827
0.0025                    -0.0025                  307.2897137484058
0.0025                    -0.0015                  305.32722396344764
0.0025                    -5.0E-4                  303.38924041496875
0.0025                    5.0E-4                   301.4580721387264
0.0025                    0.0015                   299.5179384990466
0.0025                    0.0025                   297.5430842835263
0.0025                    0.0035                   296.1535294569956
0.0025                    0.0045                   294.7639746304649
0.0025                    0.0055                   293.67419047571536
0.0025                    0.0065                   293.4253086722322
0.0025                    0.0075                   293.176426868749
0.0025                    0.0085                   293.28306596904054
0.0025                    0.0095                   293.6776761007987
0.0025                    0.0105                   294.0722862325568
0.0025                    0.0115                   295.72968345363347
0.0025                    0.0125                   297.617439269085
0.0025                    0.0135                   299.5997105859577
0.0025                    0.0145                   301.25978214088155
0.0025                    0.0155                   302.902919679359
0.0025                    0.0165                   304.42526518120593
0.0025                    0.0175                   305.8643683173816
0.0025                    0.0185                   307.30347145355734
0.0025                    0.0195                   308.49239473646355
0.0025                    0.0205                   309.2284324456868
0.0025                    0.0215                   309.9644701549101
0.0025                    0.0225                   310.46330358356045
0.0025                    0.0235                   310.6998989746846
0.0025                    0.0245                   310.91861160391113
0.0025                    0.0255                   311.1180908213583
0.0025                    0.0265                   311.3672776983919
0.0025                    0.0275                   311.66808331429365
0.0025                    0.0285                   313.06790715181387
0.0025                    0.0295                   314.55448043292967
0.0025                    0.0305                   316.0325884840909
0.0025                    0.0315                   317.4925666227031
0.0035                    -0.0315                  333.6416858006279
0.0035                    -0.0305                  331.30762663036285
0.0035                    -0.0295                  329.1408341953912
0.0035                    -0.0285                  325.96338024001255
0.0035                    -0.0275                  323.3307645677605
0.0035                    -0.0265                  320.74098730603066
0.0035                    -0.0255                  318.32000248161415
0.0035                    -0.0245                  317.88907092968196
0.0035                    -0.0235                  317.42997516993904
0.0035                    -0.0225                  316.7478051943722
0.0035                    -0.0215                  316.7041807254491
0.0035                    -0.0205                  316.675651335082
0.0035                    -0.0195                  316.4118620613709
0.0035                    -0.0185                  316.72496771151316
0.0035                    -0.0175                  317.01314435875906
0.0035                    -0.0165                  316.89761118642593
0.0035                    -0.0155                  317.2921636955464
0.0035                    -0.0145                  317.6458365014929
0.0035                    -0.0135                  317.6002110444828
0.0035                    -0.0125                  317.6003190841205
0.0035                    -0.0115                  317.55603275431366
0.0035                    -0.0105                  317.396409359889
0.0035                    -0.0095                  316.60969036974507
0.0035                    -0.0085                  315.7611451013371
0.0035                    -0.0075                  315.2229886775266
0.0035                    -0.0065                  313.7190385082283
0.0035                    -0.0055                  312.0971470676502
0.0035                    -0.0045                  310.94663515300357
0.0035                    -0.0035                  309.40511708945576
0.0035                    -0.0025                  307.6139047984599
0.0035                    -0.0015                  305.6514150135017
0.0035                    -5.0E-4                  303.9084214260062
0.0035                    5.0E-4                   302.14171352377315
0.0035                    0.0015                   300.2015798840933
0.0035                    0.0025                   297.9123963837279
0.0035                    0.0035                   296.0098948133691
0.0035                    0.0045                   294.6203399868384
0.0035                    0.0055                   293.79714150126847
0.0035                    0.0065                   293.3572566864734
0.0035                    0.0075                   293.1848365125001
0.0035                    0.0085                   293.25916178011545
0.0035                    0.0095                   293.6245232506512
0.0035                    0.0105                   294.47916934987205
0.0035                    0.0115                   295.87237421128475
0.0035                    0.0125                   297.7601300267364
0.0035                    0.0135                   300.0912067977943
0.0035                    0.0145                   302.2605946679626
0.0035                    0.0155                   303.90373220644
0.0035                    0.0165                   305.07536016858717
0.0035                    0.0175                   306.37506440301104
0.0035                    0.0185                   307.79710828704896
0.0035                    0.0195                   309.10096619823895
0.0035                    0.0205                   309.9840597798533
0.0035                    0.0215                   310.7738321445231
0.0035                    0.0225                   311.65881535554723
0.0035                    0.0235                   311.8972021125605
0.0035                    0.0245                   311.9281820565328
0.0035                    0.0255                   311.9998477125695
0.0035                    0.0265                   312.24903458960307
0.0035                    0.0275                   312.18529217673085
0.0035                    0.0285                   312.7258861307956
0.0035                    0.0295                   313.9941964183362
0.0035                    0.0305                   315.47025729312816
0.0035                    0.0315                   317.0083036813227
0.0045                    -0.0315                  332.10671576320993
0.0045                    -0.0305                  329.5530512886609
0.0045                    -0.0295                  327.02781278556085
0.0045                    -0.0285                  324.4100174420248
0.0045                    -0.0275                  321.76813726656576
0.0045                    -0.0265                  319.1262570911067
0.0045                    -0.0255                  317.99596246823825
0.0045                    -0.0245                  317.6793129771884
0.0045                    -0.0235                  317.3626634861385
0.0045                    -0.0225                  317.0948222121838
0.0045                    -0.0215                  317.2384084347285
0.0045                    -0.0205                  317.38199465727325
0.0045                    -0.0195                  317.48240140182355
0.0045                    -0.0185                  318.00801242268307
0.0045                    -0.0175                  318.53362344354264
0.0045                    -0.0165                  318.84376230906
0.0045                    -0.0155                  319.4097990542123
0.0045                    -0.0145                  319.9758357993645
0.0045                    -0.0135                  320.1203615260881
0.0045                    -0.0125                  320.1355570548801
0.0045                    -0.0115                  320.1507525836721
0.0045                    -0.0105                  319.7174047843474
0.0045                    -0.0095                  318.70578295942914
0.0045                    -0.0085                  317.694161134511
0.0045                    -0.0075                  316.54785737168635
0.0045                    -0.0065                  314.6717035566118
0.0045                    -0.0055                  312.7955497415373
0.0045                    -0.0045                  311.26483984237495
0.0045                    -0.0035                  309.56724072012884
0.0045                    -0.0025                  307.8696415978827
0.0045                    -0.0015                  306.0823458336199
0.0045                    -5.0E-4                  304.4276024370437
0.0045                    5.0E-4                   302.77285904046744
0.0045                    0.0015                   300.6886919981048
0.0045                    0.0025                   298.30397001036124
0.0045                    0.0035                   295.9192480226176
0.0045                    0.0045                   294.83210596666595
0.0045                    0.0055                   294.0246790165911
0.0045                    0.0065                   293.28920470071466
0.0045                    0.0075                   293.31237742931495
0.0045                    0.0085                   293.38670269693034
0.0045                    0.0095                   293.6605258380875
0.0045                    0.0105                   294.96432840071003
0.0045                    0.0115                   296.2681309633326
0.0045                    0.0125                   298.10252307181736
0.0045                    0.0135                   300.5827030096309
0.0045                    0.0145                   303.0628829474444
0.0045                    0.0155                   304.63380980169893
0.0045                    0.0165                   305.7668267915895
0.0045                    0.0175                   306.89984378148006
0.0045                    0.0185                   308.2248459281499
0.0045                    0.0195                   309.52870383933987
0.0045                    0.0205                   310.7396871140197
0.0045                    0.0215                   311.62194057511033
0.0045                    0.0225                   312.5069237861345
0.0045                    0.0235                   313.0106395696309
0.0045                    0.0245                   312.93775250915445
0.0045                    0.0255                   312.84447414934135
0.0045                    0.0265                   312.7564258477735
0.0045                    0.0275                   312.6683775462057
0.0045                    0.0285                   313.25181157917456
0.0045                    0.0295                   313.85013096094343
0.0045                    0.0305                   315.0664902994975
0.0045                    0.0315                   316.75760896013435
0.0055                    -0.0315                  330.5717457257919
0.0055                    -0.0305                  328.24502560625405
0.0055                    -0.0295                  325.9368382276734
0.0055                    -0.0285                  323.21167157254337
0.0055                    -0.0275                  320.55865195763596
0.0055                    -0.0265                  318.60009746529863
0.0055                    -0.0255                  318.2450337399078
0.0055                    -0.0245                  317.867915458473
0.0055                    -0.0235                  317.5453816229546
0.0055                    -0.0225                  318.0072712717386
0.0055                    -0.0215                  318.14626369584465
0.0055                    -0.0205                  318.2852561199507
0.0055                    -0.0195                  319.35036496058933
0.0055                    -0.0185                  319.8965564982426
0.0055                    -0.0175                  320.4579027317942
0.0055                    -0.0165                  321.4653760058694
0.0055                    -0.0155                  322.0365568560478
0.0055                    -0.0145                  322.5838408734476
0.0055                    -0.0135                  322.65769817401366
0.0055                    -0.0125                  322.6728833406786
0.0055                    -0.0115                  322.65520296051574
0.0055                    -0.0105                  321.35134103867705
0.0055                    -0.0095                  320.3443291515148
0.0055                    -0.0085                  319.3373172643525
0.0055                    -0.0075                  316.6154432734039
0.0055                    -0.0065                  314.7464427462049
0.0055                    -0.0055                  312.87744221900584
0.0055                    -0.0045                  310.4937451449137
0.0055                    -0.0035                  308.7977301227417
0.0055                    -0.0025                  307.1017151005697
0.0055                    -0.0015                  305.604153859235
0.0055                    -5.0E-4                  303.9425724059851
0.0055                    5.0E-4                   302.3000701564185
0.0055                    0.0015                   300.6239024313775
0.0055                    0.0025                   298.2352409687386
0.0055                    0.0035                   296.0328835004022
0.0055                    0.0045                   294.73670220239654
0.0055                    0.0055                   293.9240131855694
0.0055                    0.0065                   293.376067709451
0.0055                    0.0075                   293.31978926693324
0.0055                    0.0085                   293.3918403450838
0.0055                    0.0095                   293.8365405355109
0.0055                    0.0105                   294.9790837819647
0.0055                    0.0115                   296.2790777376894
0.0055                    0.0125                   298.5316318042436
0.0055                    0.0135                   301.0088320830646
0.0055                    0.0145                   303.27921530881156
0.0055                    0.0155                   304.28435264912304
0.0055                    0.0165                   305.4114497162795
0.0055                    0.0175                   306.55858284069234
0.0055                    0.0185                   307.7829664323101
0.0055                    0.0195                   309.07686975623136
0.0055                    0.0205                   310.69918686013375
0.0055                    0.0215                   312.00900381175325
0.0055                    0.0225                   312.89643528623253
0.0055                    0.0235                   313.83297395835893
0.0055                    0.0245                   313.9300611985165
0.0055                    0.0255                   313.7559452755424
0.0055                    0.0265                   313.39210393100717
0.0055                    0.0275                   313.17941764578467
0.0055                    0.0285                   313.6946362924271
0.0055                    0.0295                   314.1527187377896
0.0055                    0.0305                   315.1998952658485
0.0055                    0.0315                   316.51241544545627
0.0065                    -0.0315                  329.5426192426166
0.0065                    -0.0305                  327.1540510483666
0.0065                    -0.0295                  324.8210989221021
0.0065                    -0.0285                  322.0853516128609
0.0065                    -0.0275                  319.34960430361974
0.0065                    -0.0265                  318.85081129679867
0.0065                    -0.0255                  318.49860503129884
0.0065                    -0.0245                  318.13079666899057
0.0065                    -0.0235                  318.38459156550516
0.0065                    -0.0225                  318.9297580305358
0.0065                    -0.0215                  319.2502543955228
0.0065                    -0.0205                  320.01517953587523
0.0065                    -0.0195                  321.24217463620016
0.0065                    -0.0185                  322.06871935288746
0.0065                    -0.0175                  322.96413120734013
0.0065                    -0.0165                  324.0347109852039
0.0065                    -0.0155                  324.8558906212166
0.0065                    -0.0145                  325.08099408120324
0.0065                    -0.0135                  325.16179466839293
0.0065                    -0.0125                  325.21098043495425
0.0065                    -0.0115                  324.31523612021095
0.0065                    -0.0105                  322.9753186167069
0.0065                    -0.0095                  321.79958526373946
0.0065                    -0.0085                  319.62067490648815
0.0065                    -0.0075                  316.78213583540924
0.0065                    -0.0065                  314.43549522846513
0.0065                    -0.0055                  312.17578662379987
0.0065                    -0.0045                  309.6751048836393
0.0065                    -0.0035                  307.59930209568944
0.0065                    -0.0025                  306.0472236450762
0.0065                    -0.0015                  304.5861995731404
0.0065                    -5.0E-4                  303.0070741445338
0.0065                    5.0E-4                   301.51303802001905
0.0065                    0.0015                   300.0866293009419
0.0065                    0.0025                   297.9754226145673
0.0065                    0.0035                   296.2571355615207
0.0065                    0.0045                   294.6376919524297
0.0065                    0.0055                   293.74715803256834
0.0065                    0.0065                   293.5155387171885
0.0065                    0.0075                   293.2895269439333
0.0065                    0.0085                   293.52079764084147
0.0065                    0.0095                   294.12749425593915
0.0065                    0.0105                   294.8723370481348
0.0065                    0.0115                   296.72211904512903