% Model:              SIMBench260525.mph
% Version:            COMSOL 6.2.0.339
% Date:               May 27 2026, 18:03
% Dimension:          2
% Nodes:              4096
% Expressions:        1
% Description:        温度
% Length unit:        m
% x                       y                        T (K)
5.0E-4                    -0.0315                  369.4395001202225
5.0E-4                    -0.0305                  367.7085737260058
5.0E-4                    -0.0295                  365.9710322561749
5.0E-4                    -0.0285                  363.09221982273135
5.0E-4                    -0.0275                  360.3572551001863
5.0E-4                    -0.0265                  357.6222903776414
5.0E-4                    -0.0255                  355.7678358979977
5.0E-4                    -0.0245                  354.1743812826115
5.0E-4                    -0.0235                  352.60753016113745
5.0E-4                    -0.0225                  351.76746509783163
5.0E-4                    -0.0215                  350.8947325134794
5.0E-4                    -0.0205                  350.0506322718283
5.0E-4                    -0.0195                  349.4470820876593
5.0E-4                    -0.0185                  348.80966333787256
5.0E-4                    -0.0175                  348.1770762118628
5.0E-4                    -0.0165                  347.64366504125354
5.0E-4                    -0.0155                  347.1748225627252
5.0E-4                    -0.0145                  346.66877313693595
5.0E-4                    -0.0135                  346.2262894591038
5.0E-4                    -0.0125                  345.9147973701478
5.0E-4                    -0.0115                  345.4877470005732
5.0E-4                    -0.0105                  345.1488957720503
5.0E-4                    -0.0095                  345.00415248419966
5.0E-4                    -0.0085                  344.7472510290428
5.0E-4                    -0.0075                  344.4758009061609
5.0E-4                    -0.0065                  344.2788983837327
5.0E-4                    -0.0055                  344.091029724381
5.0E-4                    -0.0045                  343.96489004045856
5.0E-4                    -0.0035                  343.8514449201439
5.0E-4                    -0.0025                  343.7904695229008
5.0E-4                    -0.0015                  343.61726582626795
5.0E-4                    -5.0E-4                  343.41623384690655
5.0E-4                    5.0E-4                   343.27495819742234
5.0E-4                    0.0015                   342.2705366621776
5.0E-4                    0.0025                   341.19267723842125
5.0E-4                    0.0035                   340.39270418363895
5.0E-4                    0.0045                   335.813675657255
5.0E-4                    0.0055                   331.1977264456064
5.0E-4                    0.0065                   327.6531897588729
5.0E-4                    0.0075                   319.16650253252556
5.0E-4                    0.0085                   310.6798153061783
5.0E-4                    0.0095                   304.8917530508137
5.0E-4                    0.0105                   303.7278489876452
5.0E-4                    0.0115                   302.56394492447663
5.0E-4                    0.0125                   297.97197251631985
5.0E-4                    0.0135                   295.7862371036523
5.0E-4                    0.0145                   293.72601485272105
5.0E-4                    0.0155                   293.1490256810315
5.0E-4                    0.0165                   293.12108435440723
5.0E-4                    0.0175                   293.179518268104
5.0E-4                    0.0185                   293.4356501574456
5.0E-4                    0.0195                   293.706371851847
5.0E-4                    0.0205                   294.30685277355144
5.0E-4                    0.0215                   294.6534107527412
5.0E-4                    0.0225                   294.99996873193095
5.0E-4                    0.0235                   296.0498417179897
5.0E-4                    0.0245                   298.0706211109616
5.0E-4                    0.0255                   300.0914005039336
5.0E-4                    0.0265                   301.30963942415696
5.0E-4                    0.0275                   303.71232793850857
5.0E-4                    0.0285                   306.1150164528601
5.0E-4                    0.0295                   307.85398794037553
5.0E-4                    0.0305                   308.71671612197093
5.0E-4                    0.0315                   309.5794443035664
0.0015                    -0.0315                  368.8534957204728
0.0015                    -0.0305                  367.3656014107102
0.0015                    -0.0295                  365.15072021894093
0.0015                    -0.0285                  361.86815666752125
0.0015                    -0.0275                  358.8819991042505
0.0015                    -0.0265                  356.65900721051406
0.0015                    -0.0255                  354.716012883768
0.0015                    -0.0245                  353.01423297007705
0.0015                    -0.0235                  351.9656666253772
0.0015                    -0.0225                  351.1473416582403
0.0015                    -0.0215                  350.2855594494826
0.0015                    -0.0205                  349.6381279786347
0.0015                    -0.0195                  349.06411843442737
0.0015                    -0.0185                  348.43530521331064
0.0015                    -0.0175                  347.8225948397003
0.0015                    -0.0165                  347.2158166044487
0.0015                    -0.0155                  346.73718239197507
0.0015                    -0.0145                  346.12299985289553
0.0015                    -0.0135                  345.4855612805253
0.0015                    -0.0125                  345.1722302050376
0.0015                    -0.0115                  344.486929415232
0.0015                    -0.0105                  343.7981127510983
0.0015                    -0.0095                  343.65336946324777
0.0015                    -0.0085                  343.19383841534307
0.0015                    -0.0075                  342.7550836319942
0.0015                    -0.0065                  342.55878753668304
0.0015                    -0.0055                  342.3839643160151
0.0015                    -0.0045                  342.2201598848067
0.0015                    -0.0035                  342.11682112144507
0.0015                    -0.0025                  342.1138531103268
0.0015                    -0.0015                  342.0623273018988
0.0015                    -5.0E-4                  341.87861449151234
0.0015                    5.0E-4                   341.7880028444169
0.0015                    0.0015                   341.3911727153038
0.0015                    0.0025                   340.41496498890217
0.0015                    0.0035                   339.79461019612546
0.0015                    0.0045                   337.68677969159353
0.0015                    0.0055                   333.6753394088311
0.0015                    0.0065                   331.15995168588574
0.0015                    0.0075                   326.0209728274732
0.0015                    0.0085                   318.5705157132043
0.0015                    0.0095                   312.9508593840475
0.0015                    0.0105                   309.6331571498031
0.0015                    0.0115                   306.03614270826336
0.0015                    0.0125                   299.4036493738273
0.0015                    0.0135                   295.85723992533275
0.0015                    0.0145                   294.36100698700193
0.0015                    0.0155                   293.11416054171775
0.0015                    0.0165                   293.0699396422656
0.0015                    0.0175                   293.23209975324767
0.0015                    0.0185                   293.42286483799637
0.0015                    0.0195                   293.8478471398636
0.0015                    0.0205                   294.6365332285875
0.0015                    0.0215                   295.22430760310976
0.0015                    0.0225                   295.7805177692278
0.0015                    0.0235                   296.78499654132634
0.0015                    0.0245                   298.3739265612859
0.0015                    0.0255                   299.8053795688047
0.0015                    0.0265                   300.3458633744327
0.0015                    0.0275                   302.02864332195594
0.0015                    0.0285                   304.26104195560526
0.0015                    0.0295                   306.0779269733131
0.0015                    0.0305                   307.245557784502
0.0015                    0.0315                   308.05077622870044
0.0025                    -0.0315                  368.26749132072314
0.0025                    -0.0305                  366.51225447241126
0.0025                    -0.0295                  364.1211679924222
0.0025                    -0.0285                  360.8241372220697
0.0025                    -0.0275                  357.7861972777354
0.0025                    -0.0265                  355.7616419259941
0.0025                    -0.0255                  353.8136007511986
0.0025                    -0.0245                  352.3753813334103
0.0025                    -0.0235                  351.53355526879193
0.0025                    -0.0225                  350.69172920417367
0.0025                    -0.0215                  350.0297048906183
0.0025                    -0.0205                  349.44800974695636
0.0025                    -0.0195                  348.86631460329437
0.0025                    -0.0185                  348.255249075343
0.0025                    -0.0175                  347.6438941641179
0.0025                    -0.0165                  347.03253925289283
0.0025                    -0.0155                  346.18461334514546
0.0025                    -0.0145                  345.54800054183363
0.0025                    -0.0135                  344.9113877385219
0.0025                    -0.0125                  344.1016945847508
0.0025                    -0.0115                  343.38599614368286
0.0025                    -0.0105                  342.6702977026149
0.0025                    -0.0095                  342.03942514308415
0.0025                    -0.0085                  341.5701677408745
0.0025                    -0.0075                  341.10091033866496
0.0025                    -0.0065                  340.7897778417982
0.0025                    -0.0055                  340.6151779207473
0.0025                    -0.0045                  340.44057799969653
0.0025                    -0.0035                  340.3746119686767
0.0025                    -0.0025                  340.37171163688987
0.0025                    -0.0015                  340.3688113051031
0.0025                    -5.0E-4                  340.3298128333703
0.0025                    5.0E-4                   340.2391237574926
0.0025                    0.0015                   340.14843468161496
0.0025                    0.0025                   339.7416520504515
0.0025                    0.0035                   339.1203099908254
0.0025                    0.0045                   338.4989679311993
0.0025                    0.0055                   336.5230215283167
0.0025                    0.0065                   334.00023844647194
0.0025                    0.0075                   331.47745536462725
0.0025                    0.0085                   326.5778833242526
0.0025                    0.0095                   320.945291932433
0.0025                    0.0105                   315.06116006455795
0.0025                    0.0115                   308.21201392136896
0.0025                    0.0125                   301.56491812082606
0.0025                    0.0135                   296.11625502178117
0.0025                    0.0145                   294.866442894907
0.0025                    0.0155                   293.6166307680328
0.0025                    0.0165                   293.10571492927727
0.0025                    0.0175                   293.26856145519093
0.0025                    0.0185                   293.43140798110466
0.0025                    0.0195                   294.06254734739946
0.0025                    0.0205                   294.85892818190166
0.0025                    0.0215                   295.65530901640386
0.0025                    0.0225                   296.6467579983801
0.0025                    0.0235                   297.66861979515716
0.0025                    0.0245                   298.69048159193414
0.0025                    0.0255                   299.22236889971225
0.0025                    0.0265                   299.7628527053402
0.0025                    0.0275                   300.3449587054033
0.0025                    0.0285                   302.2398603393978
0.0025                    0.0295                   303.9435327548467
0.0025                    0.0305                   305.4334981450953
0.0025                    0.0315                   306.52091398785035
0.0035                    -0.0315                  367.31989339079416
0.0035                    -0.0305                  365.194215796188
0.0035                    -0.0295                  363.14835227103873
0.0035                    -0.0285                  359.99445152869333
0.0035                    -0.0275                  357.38768035957935
0.0035                    -0.0265                  354.9632614133594
0.0035                    -0.0255                  353.0930179047846
0.0035                    -0.0245                  352.56753683799354
0.0035                    -0.0235                  351.88766590541223
0.0035                    -0.0225                  351.0787208466184
0.0035                    -0.0215                  350.8383957312244
0.0035                    -0.0205                  350.39848145143367
0.0035                    -0.0195                  349.80515613128244
0.0035                    -0.0185                  349.1119501581433
0.0035                    -0.0175                  348.4719845227707
0.0035                    -0.0165                  347.67836234980575
0.0035                    -0.0155                  345.7847933749591
0.0035                    -0.0145                  344.7889454980058
0.0035                    -0.0135                  343.99474220440953
0.0035                    -0.0125                  342.48460340949714
0.0035                    -0.0115                  341.5901447521817
0.0035                    -0.0105                  340.83963954019885
0.0035                    -0.0095                  339.9636417408891
0.0035                    -0.0085                  339.4247607769468
0.0035                    -0.0075                  338.9745040087392
0.0035                    -0.0065                  338.57611446856856
0.0035                    -0.0055                  338.37659800633253
0.0035                    -0.0045                  338.22838308264176
0.0035                    -0.0035                  338.1343527276118
0.0035                    -0.0025                  338.1270662111136
0.0035                    -0.0015                  338.1771828808132
0.0035                    -5.0E-4                  338.3064707502683
0.0035                    5.0E-4                   338.21578167439054
0.0035                    0.0015                   338.2924093497715
0.0035                    0.0025                   338.4995509608158
0.0035                    0.0035                   337.8782089011896
0.0035                    0.0045                   337.53406548774814
0.0035                    0.0055                   337.1120484681869
0.0035                    0.0065                   334.5892653863423
0.0035                    0.0075                   332.7582686015782
0.0035                    0.0085                   330.4654990124984
0.0035                    0.0095                   324.83290762067884
0.0035                    0.0105                   316.83382017022507
0.0035                    0.0115                   308.69368349006777
0.0035                    0.0125                   302.0465876895248
0.0035                    0.0135                   297.33543116323654
0.0035                    0.0145                   294.69846456419555
0.0035                    0.0155                   293.619506223755
0.0035                    0.0165                   293.15910770215885
0.0035                    0.0175                   293.21832347214234
0.0035                    0.0185                   293.5038969786373
0.0035                    0.0195                   293.96290636199853
0.0035                    0.0205                   294.7592871965008
0.0035                    0.0215                   295.6672534172377
0.0035                    0.0225                   296.6719819275469
0.0035                    0.0235                   297.6938437243239
0.0035                    0.0245                   298.2857096768142
0.0035                    0.0255                   298.5642997128772
0.0035                    0.0265                   299.11023984082425
0.0035                    0.0275                   299.4808067323562
0.0035                    0.0285                   300.048034951652
0.0035                    0.0295                   301.5421014389042
0.0035                    0.0305                   302.986138290673
0.0035                    0.0315                   304.40112794686087
0.0045                    -0.0315                  366.8386527977687
0.0045                    -0.0305                  364.50375965606435
0.0045                    -0.0295                  362.2238527892967
0.0045                    -0.0285                  359.60343070026715
0.0045                    -0.0275                  356.9948048673772
0.0045                    -0.0265                  354.3861790344874
0.0045                    -0.0255                  353.26239749674585
0.0045                    -0.0245                  352.7369164299548
0.0045                    -0.0235                  352.21143536316384
0.0045                    -0.0225                  351.8204730737948
0.0045                    -0.0215                  351.5801479584008
0.0045                    -0.0205                  351.3398228430068
0.0045                    -0.0195                  350.68324303416557
0.0045                    -0.0185                  349.99003706102644
0.0045                    -0.0175                  349.3000748814235
0.0045                    -0.0165                  347.68705705747385
0.0045                    -0.0155                  345.7934880826272
0.0045                    -0.0145                  344.0298904541778
0.0045                    -0.0135                  342.6868656728484
0.0045                    -0.0125                  341.17672687793595
0.0045                    -0.0115                  339.7942933606806
0.0045                    -0.0105                  338.94341470630917
0.0045                    -0.0095                  338.0674169069994
0.0045                    -0.0085                  337.27935381301904
0.0045                    -0.0075                  336.87317090540375
0.0045                    -0.0065                  336.4747813652331
0.0045                    -0.0055                  336.1380180919178
0.0045                    -0.0045                  336.03968844128406
0.0045                    -0.0035                  335.9456580862542
0.0045                    -0.0025                  335.88350984185035
0.0045                    -0.0015                  336.01641671343566
0.0045                    -5.0E-4                  336.14932358502097
0.0045                    5.0E-4                   336.21847300098483
0.0045                    0.0015                   336.49639330099825
0.0045                    0.0025                   336.7743136010116
0.0045                    0.0035                   336.70904695738466
0.0045                    0.0045                   336.6213298589481
0.0045                    0.0055                   336.5336127605116
0.0045                    0.0065                   335.4315145283044
0.0045                    0.0075                   334.0618204869404
0.0045                    0.0085                   332.6921264455764
0.0045                    0.0095                   327.5818759016966
0.0045                    0.0105                   318.60648027589224
0.0045                    0.0115                   309.6310846500878
0.0045                    0.0125                   303.692146924447
0.0045                    0.0135                   299.0691386416993
0.0045                    0.0145                   294.53048623348417
0.0045                    0.0155                   293.93002862055715
0.0045                    0.0165                   293.46963009896086
0.0045                    0.0175                   293.1848169537187
0.0045                    0.0185                   293.6195267853379
0.0045                    0.0195                   294.05423661695704
0.0045                    0.0205                   294.7038652159292
0.0045                    0.0215                   295.70472044552605
0.0045                    0.0225                   296.7055756751229
0.0045                    0.0235                   297.71906765349075
0.0045                    0.0245                   297.8739648894093
0.0045                    0.0255                   297.9539055287369
0.0045                    0.0265                   298.2738982053555
0.0045                    0.0275                   298.5800667886353
0.0045                    0.0285                   299.1385182798783
0.0045                    0.0295                   299.7380789045613
0.0045                    0.0305                   300.9327052734819
0.0045                    0.0315                   302.6351885790346
0.0055                    -0.0315                  366.3574122047432
0.0055                    -0.0305                  364.3193868583593
0.0055                    -0.0295                  362.28904352619736
0.0055                    -0.0285                  359.3037088767253
0.0055                    -0.0275                  356.66010665387506
0.0055                    -0.0265                  354.732518426441
0.0055                    -0.0255                  354.00910414670125
0.0055                    -0.0245                  353.440146812277
0.0055                    -0.0235                  353.0888773021604
0.0055                    -0.0225                  353.15027069318364
0.0055                    -0.0215                  352.908131487667
0.0055                    -0.0205                  351.9723556262906
0.0055                    -0.0195                  350.4729725938373
0.0055                    -0.0185                  349.7943859272173
0.0055                    -0.0175                  348.0858804740819
0.0055                    -0.0165                  345.5268193226233
0.0055                    -0.0155                  343.66235838945516
0.0055                    -0.0145                  341.86390592726207
0.0055                    -0.0135                  340.2543756020325
0.0055                    -0.0125                  338.7533360623342
0.0055                    -0.0115                  337.62429081946925
0.0055                    -0.0105                  336.8243345001093
0.0055                    -0.0095                  335.94917989806675
0.0055                    -0.0085                  335.400280378003
0.0055                    -0.0075                  335.0643716829166
0.0055                    -0.0065                  334.6656386599278
0.0055                    -0.0055                  334.47284341397483
0.0055                    -0.0045                  334.39790942453834
0.0055                    -0.0035                  334.3035964370016
0.0055                    -0.0025                  334.30906188527786
0.0055                    -0.0015                  334.4229219426858
0.0055                    -5.0E-4                  334.5555840040264
0.0055                    5.0E-4                   334.6865295285522
0.0055                    0.0015                   334.93343407309385
0.0055                    0.0025                   335.21182817578705
0.0055                    0.0035                   335.435127489025
0.0055                    0.0045                   335.3891903124603
0.0055                    0.0055                   335.29840209605334
0.0055                    0.0065                   335.1957052761234
0.0055                    0.0075                   333.9178733931699
0.0055                    0.0085                   332.53145317058863
0.0055                    0.0095                   329.46558412759623
0.0055                    0.0105                   320.4913207017133
0.0055                    0.0115                   311.53836225379405
0.0055                    0.0125                   303.7092968593201
0.0055                    0.0135                   299.06914824909256
0.0055                    0.0145                   295.41593228159365
0.0055                    0.0155                   293.9330688529783
0.0055                    0.0165                   293.4712761384927
0.0055                    0.0175                   293.27155665124536
0.0055                    0.0185                   293.5685282914682
0.0055                    0.0195                   294.0060857500913
0.0055                    0.0205                   294.6488888098156
0.0055                    0.0215                   295.6674750286072
0.0055                    0.0225                   296.6860612473988
0.0055                    0.0235                   297.4452329998079
0.0055                    0.0245                   297.5056799095812
0.0055                    0.0255                   297.6014379803412
0.0055                    0.0265                   297.64452611616525
0.0055                    0.0275                   297.68225792703254
0.0055                    0.0285                   298.27334878562885
0.0055                    0.0295                   298.9374073587453
0.0055                    0.0305                   299.8551579160669
0.0055                    0.0315                   300.89013066972933
0.0065                    -0.0315                  366.4078119771108
0.0065                    -0.0305                  364.39634556032274
0.0065                    -0.0295                  362.2876184917761
0.0065                    -0.0285                  359.30228384230406
0.0065                    -0.0275                  356.3328176327415
0.0065                    -0.0265                  355.573004111366
0.0065                    -0.0255                  354.8131905899904
0.0065                    -0.0245                  354.1880191471721
0.0065                    -0.0235                  354.2730538594964
0.0065                    -0.0225                  354.45826818688005
0.0065                    -0.0215                  354.2632235776101
0.0065                    -0.0205                  352.3041657496875
0.0065                    -0.0195                  350.34510792176485
0.0065                    -0.0185                  349.14892323065186
0.0065                    -0.0175                  346.06969791990366
0.0065                    -0.0165                  342.99047260915546
0.0065                    -0.0155                  340.91424993100566
0.0065                    -0.0145                  339.1996303711961
0.0065                    -0.0135                  337.4850108113866
0.0065                    -0.0125                  336.0341637273689
0.0065                    -0.0115                  335.32556443071456
0.0065                    -0.0105                  334.6169651340602
0.0065                    -0.0095                  333.83987246792645
0.0065                    -0.0085                  333.5999039196132
0.0065                    -0.0075                  333.35993537129997
0.0065                    -0.0065                  333.0321219249954
0.0065                    -0.0055                  332.9952556186662
0.0065                    -0.0045                  332.9555081427301
0.0065                    -0.0035                  332.900926243268
0.0065                    -0.0025                  332.9653386137845
0.0065                    -0.0015                  333.03734930536046
0.0065                    -5.0E-4                  333.1692404543489
0.0065                    5.0E-4                   333.2994139033092
0.0065                    0.0015                   333.4553386765206
0.0065                    0.0025                   333.70655695111566
0.0065                    0.0035                   333.91191054279204
0.0065                    0.0045                   334.047672800191
0.0065                    0.0055                   333.9504236400134
0.0065                    0.0065                   333.8454119184739
0.0065                    0.0075                   333.3385130755703
0.0065                    0.0085                   331.0656754270684
0.0065                    0.0095                   328.180045066714
0.0065                    0.0105                   322.4052442940738
0.0065                    0.0115                   313.519928948754