% Model:              SIMBench260525.mph
% Version:            COMSOL 6.2.0.339
% Date:               May 27 2026, 17:43
% Dimension:          2
% Nodes:              4096
% Expressions:        1
% Description:        温度
% Length unit:        m
% x                       y                        T (K)
5.0E-4                    -0.0315                  344.00664539664416
5.0E-4                    -0.0305                  342.3019783538275
5.0E-4                    -0.0295                  340.5842497004776
5.0E-4                    -0.0285                  337.1915824805969
5.0E-4                    -0.0275                  333.4236196334475
5.0E-4                    -0.0265                  329.65565678629815
5.0E-4                    -0.0255                  325.54801895709136
5.0E-4                    -0.0245                  321.96338536422877
5.0E-4                    -0.0235                  318.43776384271285
5.0E-4                    -0.0225                  316.0280909507321
5.0E-4                    -0.0215                  313.8268083086614
5.0E-4                    -0.0205                  311.7720984164436
5.0E-4                    -0.0195                  310.60910128459943
5.0E-4                    -0.0185                  309.35015660364377
5.0E-4                    -0.0175                  308.2519948474154
5.0E-4                    -0.0165                  307.5522700123378
5.0E-4                    -0.0155                  306.68823426290794
5.0E-4                    -0.0145                  306.01568817578624
5.0E-4                    -0.0135                  305.4690732247273
5.0E-4                    -0.0125                  304.7297676295365
5.0E-4                    -0.0115                  304.26621301582526
5.0E-4                    -0.0105                  303.8052309375257
5.0E-4                    -0.0095                  303.1624272841874
5.0E-4                    -0.0085                  302.79535797349183
5.0E-4                    -0.0075                  302.18556066559177
5.0E-4                    -0.0065                  301.4330418808969
5.0E-4                    -0.0055                  300.77998825241286
5.0E-4                    -0.0045                  299.53965687332806
5.0E-4                    -0.0035                  298.21224103883515
5.0E-4                    -0.0025                  296.66440501942145
5.0E-4                    -0.0015                  295.84975789556256
5.0E-4                    -5.0E-4                  295.065219155661
5.0E-4                    5.0E-4                   293.7015426589428
5.0E-4                    0.0015                   293.55887950140175
5.0E-4                    0.0025                   293.41621634386075
5.0E-4                    0.0035                   293.4057965052691
5.0E-4                    0.0045                   293.47995446528205
5.0E-4                    0.0055                   293.5541124252949
5.0E-4                    0.0065                   293.28748432830355
5.0E-4                    0.0075                   293.2022942795516
5.0E-4                    0.0085                   293.1893152109482
5.0E-4                    0.0095                   293.24649728611735
5.0E-4                    0.0105                   293.41617957307216
5.0E-4                    0.0115                   293.34366799292513
5.0E-4                    0.0125                   293.2711564127781
5.0E-4                    0.0135                   293.2297189657138
5.0E-4                    0.0145                   293.26009017593617
5.0E-4                    0.0155                   293.572786042194
5.0E-4                    0.0165                   294.105783926457
5.0E-4                    0.0175                   294.4486089925518
5.0E-4                    0.0185                   295.7586733127187
5.0E-4                    0.0195                   297.79075187745946
5.0E-4                    0.0205                   299.82101451941446
5.0E-4                    0.0215                   301.0067745357454
5.0E-4                    0.0225                   302.25984707496326
5.0E-4                    0.0235                   303.43875582814377
5.0E-4                    0.0245                   304.2405294554426
5.0E-4                    0.0255                   305.4921312841706
5.0E-4                    0.0265                   306.555177898165
5.0E-4                    0.0275                   308.4486834929064
5.0E-4                    0.0285                   310.69750489403526
5.0E-4                    0.0295                   312.9678980906784
5.0E-4                    0.0305                   314.65633419805727
5.0E-4                    0.0315                   316.3447703054361
0.0015                    -0.0315                  343.080051213832
0.0015                    -0.0305                  341.8482972471704
0.0015                    -0.0295                  339.5230286904962
0.0015                    -0.0285                  335.780585894261
0.0015                    -0.0275                  332.0249010643279
0.0015                    -0.0265                  327.85840633673956
0.0015                    -0.0255                  323.4705620938312
0.0015                    -0.0245                  319.64557857538864
0.0015                    -0.0235                  316.787534517408
0.0015                    -0.0225                  314.22349994896615
0.0015                    -0.0215                  311.9551264438902
0.0015                    -0.0205                  310.630334314401
0.0015                    -0.0195                  309.5646595561894
0.0015                    -0.0185                  308.3259530141532
0.0015                    -0.0175                  307.73086673019327
0.0015                    -0.0165                  307.2584637480978
0.0015                    -0.0155                  306.4053511819285
0.0015                    -0.0145                  306.16863484152344
0.0015                    -0.0135                  305.964145383877
0.0015                    -0.0125                  305.2248397886861
0.0015                    -0.0115                  305.25280471849834
0.0015                    -0.0105                  305.208024983416
0.0015                    -0.0095                  304.5999974385953
0.0015                    -0.0085                  304.6010406572781
0.0015                    -0.0075                  304.45058522682393
0.0015                    -0.0065                  303.7231695647676
0.0015                    -0.0055                  303.16802858551284
0.0015                    -0.0045                  302.3988949077203
0.0015                    -0.0035                  300.9944815273275
0.0015                    -0.0025                  299.287294737074
0.0015                    -0.0015                  297.9156203566494
0.0015                    -5.0E-4                  296.8082005638773
0.0015                    5.0E-4                   295.0529872423797
0.0015                    0.0015                   294.02209104568266
0.0015                    0.0025                   293.95698538213253
0.0015                    0.0035                   293.9643130115625
0.0015                    0.0045                   294.024188624916
0.0015                    0.0055                   293.7246978926264
0.0015                    0.0065                   293.4266582602904
0.0015                    0.0075                   293.2243043339417
0.0015                    0.0085                   293.2058413628812
0.0015                    0.0095                   293.28461259925393
0.0015                    0.0105                   293.5540199359904
0.0015                    0.0115                   293.7148882237458
0.0015                    0.0125                   293.63021344201104
0.0015                    0.0135                   293.53100958695666
0.0015                    0.0145                   293.53913448736813
0.0015                    0.0155                   294.41647966569667
0.0015                    0.0165                   295.329823186296
0.0015                    0.0175                   295.9581979947993
0.0015                    0.0185                   298.04513507409933
0.0015                    0.0195                   300.10918270308383
0.0015                    0.0205                   301.6315443147173
0.0015                    0.0215                   302.52083170272044
0.0015                    0.0225                   303.6664627520767
0.0015                    0.0235                   304.236107228928
0.0015                    0.0245                   304.59842580237785
0.0015                    0.0255                   305.82279897872604
0.0015                    0.0265                   306.5359638156329
0.0015                    0.0275                   307.7188377975995
0.0015                    0.0285                   309.9757192445751
0.0015                    0.0295                   312.2808006200939
0.0015                    0.0305                   314.24982474065405
0.0015                    0.0315                   315.7851860196902
0.0025                    -0.0315                  342.1534570310199
0.0025                    -0.0305                  340.4030816230393
0.0025                    -0.0295                  337.8081254220634
0.0025                    -0.0285                  334.121160736703
0.0025                    -0.0275                  330.00638983269926
0.0025                    -0.0265                  325.60187161546264
0.0025                    -0.0255                  321.2772061955666
0.0025                    -0.0245                  317.6819508833049
0.0025                    -0.0235                  315.1198321984911
0.0025                    -0.0225                  312.5577135136773
0.0025                    -0.0215                  310.6994895337513
0.0025                    -0.0205                  309.63082689434884
0.0025                    -0.0195                  308.56216425494637
0.0025                    -0.0185                  307.86699072926206
0.0025                    -0.0175                  307.39063477910645
0.0025                    -0.0165                  306.9142788289507
0.0025                    -0.0155                  306.71677243174605
0.0025                    -0.0145                  306.5359963934967
0.0025                    -0.0135                  306.35522035524735
0.0025                    -0.0125                  306.4264014785718
0.0025                    -0.0115                  306.46274143362365
0.0025                    -0.0105                  306.4990813886755
0.0025                    -0.0095                  306.5880079913808
0.0025                    -0.0085                  306.58717256375473
0.0025                    -0.0075                  306.58633713612875
0.0025                    -0.0065                  306.2403218907446
0.0025                    -0.0055                  305.68496710851264
0.0025                    -0.0045                  305.1296123262808
0.0025                    -0.0035                  303.78693075463536
0.0025                    -0.0025                  302.1022456246356
0.0025                    -0.0015                  300.41756049463595
0.0025                    -5.0E-4                  298.7798746871274
0.0025                    5.0E-4                   297.12586512249834
0.0025                    0.0015                   295.37323825773257
0.0025                    0.0025                   295.15056884073886
0.0025                    0.0035                   295.1585951328501
0.0025                    0.0045                   294.3038976680547
0.0025                    0.0055                   293.874155287321
0.0025                    0.0065                   293.56583219227736
0.0025                    0.0075                   293.3197002817863
0.0025                    0.0085                   293.2451308320598
0.0025                    0.0095                   293.32272791239046
0.0025                    0.0105                   293.62786383264284
0.0025                    0.0115                   293.978187446261
0.0025                    0.0125                   294.15459506373213
0.0025                    0.0135                   294.0795527288469
0.0025                    0.0145                   294.6701468428723
0.0025                    0.0155                   295.6533887777117
0.0025                    0.0165                   296.6366307125511
0.0025                    0.0175                   298.3744810816485
0.0025                    0.0185                   300.46121085997174
0.0025                    0.0195                   302.479744748946
0.0025                    0.0205                   303.4092607963526
0.0025                    0.0215                   304.2965321938261
0.0025                    0.0225                   304.96745553691807
0.0025                    0.0235                   305.28478115725636
0.0025                    0.0245                   305.60210677759466
0.0025                    0.0255                   305.95062025029443
0.0025                    0.0265                   306.5350265153834
0.0025                    0.0275                   307.2299145700077
0.0025                    0.0285                   309.27896145344283
0.0025                    0.0295                   311.5830020615253
0.0025                    0.0305                   313.635481950475
0.0025                    0.0315                   315.2182082036144
0.0035                    -0.0315                  340.2169844596042
0.0035                    -0.0305                  338.0418303301734
0.0035                    -0.0295                  335.85838062627187
0.0035                    -0.0285                  331.9535918344423
0.0035                    -0.0275                  327.08108426328414
0.0035                    -0.0265                  322.35241673855637
0.0035                    -0.0255                  318.13605727711206
0.0035                    -0.0245                  315.82285125715447
0.0035                    -0.0235                  313.384690026795
0.0035                    -0.0225                  310.93927752312584
0.0035                    -0.0215                  310.27150735264
0.0035                    -0.0205                  309.361284972993
0.0035                    -0.0195                  308.42795886207404
0.0035                    -0.0185                  308.38874099657863
0.0035                    -0.0175                  308.05233170527254
0.0035                    -0.0165                  307.7508803861623
0.0035                    -0.0155                  308.20282049562695
0.0035                    -0.0145                  308.1773089312308
0.0035                    -0.0135                  308.21820857311667
0.0035                    -0.0125                  308.9347938093277
0.0035                    -0.0115                  309.08610254532056
0.0035                    -0.0105                  309.2574634220743
0.0035                    -0.0095                  309.72989887638494
0.0035                    -0.0085                  309.7730284267475
0.0035                    -0.0075                  309.7315448096388
0.0035                    -0.0065                  309.623097137929
0.0035                    -0.0055                  309.0755018065086
0.0035                    -0.0045                  308.42756959073915
0.0035                    -0.0035                  307.6006127629207
0.0035                    -0.0025                  305.915927632921
0.0035                    -0.0015                  304.2966739566693
0.0035                    -5.0E-4                  302.7047390482201
0.0035                    5.0E-4                   301.050729483591
0.0035                    0.0015                   299.01139742037833
0.0035                    0.0025                   297.80622794526766
0.0035                    0.0035                   297.2272830736616
0.0035                    0.0045                   295.0142354825425
0.0035                    0.0055                   294.3676256467811
0.0035                    0.0065                   293.778313525699
0.0035                    0.0075                   293.3388577631936
0.0035                    0.0085                   293.2868584901746
0.0035                    0.0095                   293.4236240327002
0.0035                    0.0105                   293.6822673335821
0.0035                    0.0115                   294.4845191953927
0.0035                    0.0125                   295.48871241030173
0.0035                    0.0135                   295.41367007541646
0.0035                    0.0145                   297.1674751961415
0.0035                    0.0155                   298.420087285602
0.0035                    0.0165                   299.6508757761627
0.0035                    0.0175                   301.32294623013763
0.0035                    0.0185                   303.40395837598555
0.0035                    0.0195                   304.84663743061026
0.0035                    0.0205                   305.9223594100388
0.0035                    0.0215                   306.7925687402329
0.0035                    0.0225                   307.1563299956516
0.0035                    0.0235                   307.48870161216576
0.0035                    0.0245                   307.51368195401454
0.0035                    0.0255                   307.3164210748031
0.0035                    0.0265                   307.9008273398921
0.0035                    0.0275                   307.96276673970715
0.0035                    0.0285                   308.94536373574437
0.0035                    0.0295                   310.88245514996265
0.0035                    0.0305                   312.872046429856
0.0035                    0.0315                   314.59208017954086
0.0045                    -0.0315                  338.53129382811886
0.0045                    -0.0305                  336.1768970690455
0.0045                    -0.0295                  333.8046322741167
0.0045                    -0.0285                  329.0735905591693
0.0045                    -0.0275                  324.19176095779005
0.0045                    -0.0265                  319.3099313564108
0.0045                    -0.0255                  316.2572956274968
0.0045                    -0.0245                  313.9440896075392
0.0045                    -0.0235                  311.63088358758165
0.0045                    -0.0225                  310.4286693275544
0.0045                    -0.0215                  309.76089915706865
0.0045                    -0.0205                  309.09174305163714
0.0045                    -0.0195                  308.8241778932294
0.0045                    -0.0185                  308.784960027734
0.0045                    -0.0175                  308.7140286314387
0.0045                    -0.0165                  309.00683214176405
0.0045                    -0.0155                  309.4587722512287
0.0045                    -0.0145                  309.818621468965
0.0045                    -0.0135                  310.42703980545707
0.0045                    -0.0125                  311.1436250416681
0.0045                    -0.0115                  311.70946365701747
0.0045                    -0.0105                  312.1552888273153
0.0045                    -0.0095                  312.6277242816259
0.0045                    -0.0085                  312.9583934407158
0.0045                    -0.0075                  312.84994576900596
0.0045                    -0.0065                  312.74149809729613
0.0045                    -0.0055                  312.4508473418545
0.0045                    -0.0045                  311.6895562503175
0.0045                    -0.0035                  310.9282651587804
0.0045                    -0.0025                  309.75481283095235
0.0045                    -0.0015                  308.1774655167518
0.0045                    -5.0E-4                  306.6001182025513
0.0045                    5.0E-4                   304.75647872372446
0.0045                    0.0015                   302.64955658302404
0.0045                    0.0025                   300.5426344423236
0.0045                    0.0035                   298.55616586253916
0.0045                    0.0045                   296.3431182714201
0.0045                    0.0055                   294.82054471801763
0.0045                    0.0065                   294.1725689112229
0.0045                    0.0075                   293.489390042433
0.0045                    0.0085                   293.37882874667014
0.0045                    0.0095                   293.55609533674556
0.0045                    0.0105                   293.74911998693557
0.0045                    0.0115                   295.0515475963442
0.0045                    0.0125                   296.3539752057528
0.0045                    0.0135                   297.7341613814519
0.0045                    0.0145                   299.49201682313975
0.0045                    0.0155                   301.1867857934924
0.0045                    0.0165                   302.82415256265307
0.0045                    0.0175                   304.496223016628
0.0045                    0.0185                   306.05236229066537
0.0045                    0.0195                   307.2135301122745
0.0045                    0.0205                   308.3746979338837
0.0045                    0.0215                   308.9731065752409
0.0045                    0.0225                   309.33686783065957
0.0045                    0.0235                   309.6613445951511
0.0045                    0.0245                   309.2334089140536
0.0045                    0.0255                   308.7999530546456
0.0045                    0.0265                   308.67371850963184
0.0045                    0.0275                   308.60141532281546
0.0045                    0.0285                   309.65620253577913
0.0045                    0.0295                   310.8250801668525
0.0045                    0.0305                   312.34154679003586
0.0045                    0.0315                   314.31151194509533
0.0055                    -0.0315                  336.8456031966336
0.0055                    -0.0305                  334.35204135015135
0.0055                    -0.0295                  331.8243683647072
0.0055                    -0.0285                  326.64185546536
0.0055                    -0.0275                  321.73827075417046
0.0055                    -0.0265                  317.7005916304927
0.0055                    -0.0255                  315.12233166294254
0.0055                    -0.0245                  312.74992173559923
0.0055                    -0.0235                  310.94362096959486
0.0055                    -0.0225                  310.4053591717649
0.0055                    -0.0215                  309.73695483663585
0.0055                    -0.0205                  309.4258090885279
0.0055                    -0.0195                  309.50524270528297
0.0055                    -0.0185                  309.4642330247825
0.0055                    -0.0175                  309.74704434942055
0.0055                    -0.0165                  310.29972561724725
0.0055                    -0.0155                  310.7513704707103
0.0055                    -0.0145                  311.3450811347957
0.0055                    -0.0135                  312.06867337519463
0.0055                    -0.0125                  312.7886828925177
0.0055                    -0.0115                  313.27928440895465
0.0055                    -0.0105                  313.69556715532093
0.0055                    -0.0095                  314.1739018841042
0.0055                    -0.0085                  314.16432844319735
0.0055                    -0.0075                  314.0029665816943
0.0055                    -0.0065                  313.8992110365587
0.0055                    -0.0055                  313.3804988712337
0.0055                    -0.0045                  312.5946687337548
0.0055                    -0.0035                  311.78274472027584
0.0055                    -0.0025                  310.9174787890937
0.0055                    -0.0015                  309.3191960832475
0.0055                    -5.0E-4                  307.73284307911797
0.0055                    5.0E-4                   306.8330818354986
0.0055                    0.0015                   304.7164839883122
0.0055                    0.0025                   302.28624808634686
0.0055                    0.0035                   299.75544909859946
0.0055                    0.0045                   297.54365819056545
0.0055                    0.0055                   295.03955243748266
0.0055                    0.0065                   294.12307557776734
0.0055                    0.0075                   293.56804992542465
0.0055                    0.0085                   293.32473085423555
0.0055                    0.0095                   293.50199744431103
0.0055                    0.0105                   294.05419607180283
0.0055                    0.0115                   295.1516249346448
0.0055                    0.0125                   296.5365178989582
0.0055                    0.0135                   298.45775350701723
0.0055                    0.0145                   300.2175818955552
0.0055                    0.0155                   301.59420087874423
0.0055                    0.0165                   302.9680417637816
0.0055                    0.0175                   304.6166540617958
0.0055                    0.0185                   305.9725252555855
0.0055                    0.0195                   307.1527794292721
0.0055                    0.0205                   308.4359408469952
0.0055                    0.0215                   309.7196805723806
0.0055                    0.0225                   310.09487888703745
0.0055                    0.0235                   310.52243737401517
0.0055                    0.0245                   310.4346393170442
0.0055                    0.0255                   309.98408098016483
0.0055                    0.0265                   309.5725852135364
0.0055                    0.0275                   309.2400639059239
0.0055                    0.0285                   310.21351672713826
0.0055                    0.0295                   311.1514336260718
0.0055                    0.0305                   312.4819482857338
0.0055                    0.0315                   314.0461970085904
0.0065                    -0.0315                  335.02981499841604
0.0065                    -0.0305                  332.3946416946561
0.0065                    -0.0295                  329.63675992037
0.0065                    -0.0285                  324.45424702102287
0.0065                    -0.0275                  319.32068599251903
0.0065                    -0.0265                  316.69235581837876
0.0065                    -0.0255                  314.0640256442384
0.0065                    -0.0245                  311.618630677474
0.0065                    -0.0235                  310.9089287766426
0.0065                    -0.0225                  310.43128025886693
0.0065                    -0.0215                  309.8905436637149
0.0065                    -0.0205                  310.050348248616
0.0065                    -0.0195                  310.2101528335171
0.0065                    -0.0185                  310.2948251577391
0.0065                    -0.0175                  310.9344722661345
0.0065                    -0.0165                  311.57411937452986
0.0065                    -0.0155                  312.0951190735341
0.0065                    -0.0145                  312.82285289768913
0.0065                    -0.0135                  313.5505867218441
0.0065                    -0.0125                  314.1897623314763
0.0065                    -0.0115                  314.50757188981976
0.0065                    -0.0105                  314.82628718676904
0.0065                    -0.0095                  315.10085516492586
0.0065                    -0.0085                  314.80995632965585
0.0065                    -0.0075                  314.53525674703957
0.0065                    -0.0065                  314.2348956205409
0.0065                    -0.0055                  313.5405197029269
0.0065                    -0.0045                  312.8242124744834
0.0065                    -0.0035                  311.98225561574384
0.0065                    -0.0025                  311.10826354726555
0.0065                    -0.0015                  309.96409873801434
0.0065                    -5.0E-4                  308.9374689270506
0.0065                    5.0E-4                   308.1727787000326
0.0065                    0.0015                   306.570953164889
0.0065                    0.0025                   303.7696125653119
0.0065                    0.0035                   300.9682719657348
0.0065                    0.0045                   298.57497214357215
0.0065                    0.0055                   296.031748667141
0.0065                    0.0065                   294.07358224431175
0.0065                    0.0075                   293.7388009929425
0.0065                    0.0085                   293.4461112044492
0.0065                    0.0095                   293.59071778287665
0.0065                    0.0105                   294.3688846757524
0.0065                    0.0115                   295.2097707266489