% Model:              SIMBench260525.mph
% Version:            COMSOL 6.2.0.339
% Date:               May 27 2026, 17:20
% Dimension:          2
% Nodes:              4096
% Expressions:        1
% Description:        温度
% Length unit:        m
% x                       y                        T (K)
5.0E-4                    -0.0315                  372.10142242732627
5.0E-4                    -0.0305                  371.53118986720915
5.0E-4                    -0.0295                  370.9469237974055
5.0E-4                    -0.0285                  370.03047973419945
5.0E-4                    -0.0275                  368.79327815301195
5.0E-4                    -0.0265                  367.55607657182446
5.0E-4                    -0.0255                  364.7695725593054
5.0E-4                    -0.0245                  360.9218674163267
5.0E-4                    -0.0235                  356.9515114675321
5.0E-4                    -0.0225                  349.896579678136
5.0E-4                    -0.0215                  343.39217691054296
5.0E-4                    -0.0205                  336.95885124742176
5.0E-4                    -0.0195                  331.7535981359792
5.0E-4                    -0.0185                  327.1876348197753
5.0E-4                    -0.0175                  323.1252712504761
5.0E-4                    -0.0165                  321.4579772098193
5.0E-4                    -0.0155                  319.5310699807261
5.0E-4                    -0.0145                  317.93881360257916
5.0E-4                    -0.0135                  317.2289761266121
5.0E-4                    -0.0125                  316.3180126503625
5.0E-4                    -0.0115                  315.61993742098826
5.0E-4                    -0.0105                  315.1309476926368
5.0E-4                    -0.0095                  314.47434282680774
5.0E-4                    -0.0085                  314.02187350791985
5.0E-4                    -0.0075                  313.68689579817334
5.0E-4                    -0.0065                  313.2504084767286
5.0E-4                    -0.0055                  312.9860384651389
5.0E-4                    -0.0045                  312.7747259379138
5.0E-4                    -0.0035                  312.512454686441
5.0E-4                    -0.0025                  312.3305676130247
5.0E-4                    -0.0015                  312.04525006447534
5.0E-4                    -5.0E-4                  311.72852269479097
5.0E-4                    5.0E-4                   311.3728924119329
5.0E-4                    0.0015                   310.65475558470973
5.0E-4                    0.0025                   309.910187260221
5.0E-4                    0.0035                   309.0575389021293
5.0E-4                    0.0045                   306.4354089701999
5.0E-4                    0.0055                   303.79815811442626
5.0E-4                    0.0065                   301.6090981261891
5.0E-4                    0.0075                   299.46119752312393
5.0E-4                    0.0085                   297.3132969200586
5.0E-4                    0.0095                   295.50549541750127
5.0E-4                    0.0105                   295.5782139161113
5.0E-4                    0.0115                   295.6509324147213
5.0E-4                    0.0125                   294.45925830127055
5.0E-4                    0.0135                   293.846045113546
5.0E-4                    0.0145                   293.272792196928
5.0E-4                    0.0155                   293.13202470419174
5.0E-4                    0.0165                   293.1304162541271
5.0E-4                    0.0175                   293.2450292182127
5.0E-4                    0.0185                   293.66438115637493
5.0E-4                    0.0195                   294.107261000282
5.0E-4                    0.0205                   294.87424877042315
5.0E-4                    0.0215                   294.96856302821993
5.0E-4                    0.0225                   295.06287728601666
5.0E-4                    0.0235                   295.89956753718104
5.0E-4                    0.0245                   297.12912653401895
5.0E-4                    0.0255                   298.3586855308568
5.0E-4                    0.0265                   299.39942728962365
5.0E-4                    0.0275                   300.9814650717191
5.0E-4                    0.0285                   302.56350285381444
5.0E-4                    0.0295                   303.76424587114036
5.0E-4                    0.0305                   304.9608975485698
5.0E-4                    0.0315                   306.15754922599916
0.0015                    -0.0315                  370.1124076622989
0.0015                    -0.0305                  370.05775396115604
0.0015                    -0.0295                  369.4150912500377
0.0015                    -0.0285                  368.5185262101471
0.0015                    -0.0275                  367.43758036878165
0.0015                    -0.0265                  365.4898447913333
0.0015                    -0.0255                  363.15351868722973
0.0015                    -0.0245                  359.77420261436885
0.0015                    -0.0235                  353.4143842486437
0.0015                    -0.0225                  345.9930777635002
0.0015                    -0.0215                  339.30413387857897
0.0015                    -0.0205                  333.3590200752042
0.0015                    -0.0195                  327.59616941647437
0.0015                    -0.0185                  322.8677714835926
0.0015                    -0.0175                  320.8771601868158
0.0015                    -0.0165                  319.5048552067519
0.0015                    -0.0155                  317.61731787759555
0.0015                    -0.0145                  316.99764434576605
0.0015                    -0.0135                  316.5871428387966
0.0015                    -0.0125                  315.67900300025855
0.0015                    -0.0115                  315.45669184853057
0.0015                    -0.0105                  315.2699020519335
0.0015                    -0.0095                  314.61329718610443
0.0015                    -0.0085                  314.5296273853553
0.0015                    -0.0075                  314.42246597179
0.0015                    -0.0065                  313.9975283582951
0.0015                    -0.0055                  313.98170955486313
0.0015                    -0.0045                  313.9216049657416
0.0015                    -0.0035                  313.6748083506655
0.0015                    -0.0025                  313.58179552252227
0.0015                    -0.0015                  313.4338691300901
0.0015                    -5.0E-4                  313.1059074538494
0.0015                    5.0E-4                   312.7172656980527
0.0015                    0.0015                   312.2180909307501
0.0015                    0.0025                   311.4341500174531
0.0015                    0.0035                   310.51153949796395
0.0015                    0.0045                   308.9484356154937
0.0015                    0.0055                   306.5078841890384
0.0015                    0.0065                   304.5524644282294
0.0015                    0.0075                   302.51174905150464
0.0015                    0.0085                   300.38911924292984
0.0015                    0.0095                   298.3103959055213
0.0015                    0.0105                   297.3844270907227
0.0015                    0.0115                   296.585543908383
0.0015                    0.0125                   294.7728741395428
0.0015                    0.0135                   293.8094047503704
0.0015                    0.0145                   293.41566232924106
0.0015                    0.0155                   293.10121900134305
0.0015                    0.0165                   293.10597442849337
0.0015                    0.0175                   293.360818284178
0.0015                    0.0185                   293.67043574810975
0.0015                    0.0195                   294.30953899652786
0.0015                    0.0205                   295.397541172579
0.0015                    0.0215                   295.9713990585334
0.0015                    0.0225                   296.3697093659742
0.0015                    0.0235                   297.35114569119474
0.0015                    0.0245                   298.48146981202655
0.0015                    0.0255                   299.528350753286
0.0015                    0.0265                   300.31832573697193
0.0015                    0.0275                   301.60369508832696
0.0015                    0.0285                   303.0205522941676
0.0015                    0.0295                   304.0595870488207
0.0015                    0.0305                   305.2059241403047
0.0015                    0.0315                   306.45052683349786
0.0025                    -0.0315                  368.1233928972715
0.0025                    -0.0305                  367.51507317965604
0.0025                    -0.0295                  366.7371166285358
0.0025                    -0.0285                  366.06138151674753
0.0025                    -0.0275                  364.95827166440137
0.0025                    -0.0265                  362.7492571765267
0.0025                    -0.0255                  360.48837369332153
0.0025                    -0.0245                  356.60323478669886
0.0025                    -0.0235                  349.25198516152125
0.0025                    -0.0225                  341.9007355363436
0.0025                    -0.0215                  335.37663891475023
0.0025                    -0.0205                  329.6186453856642
0.0025                    -0.0195                  323.8606518565781
0.0025                    -0.0185                  320.21455159898835
0.0025                    -0.0175                  318.83683658011944
0.0025                    -0.0165                  317.45912156125047
0.0025                    -0.0155                  316.6246562061625
0.0025                    -0.0145                  316.2098220270236
0.0025                    -0.0135                  315.7949878478847
0.0025                    -0.0125                  315.5769879100652
0.0025                    -0.0115                  315.41249758696597
0.0025                    -0.0105                  315.2480072638667
0.0025                    -0.0095                  315.2123913208475
0.0025                    -0.0085                  315.14661753331904
0.0025                    -0.0075                  315.08084374579056
0.0025                    -0.0065                  315.10557402825816
0.0025                    -0.0055                  315.0892832109041
0.0025                    -0.0045                  315.07299239355
0.0025                    -0.0035                  315.0107220663612
0.0025                    -0.0025                  314.9173919616077
0.0025                    -0.0015                  314.8240618568541
0.0025                    -5.0E-4                  314.4602226619777
0.0025                    5.0E-4                   314.0715746271047
0.0025                    0.0015                   313.68292659223175
0.0025                    0.0025                   312.8065362629195
0.0025                    0.0035                   311.8825706342206
0.0025                    0.0045                   310.95860500552163
0.0025                    0.0055                   309.19205706536445
0.0025                    0.0065                   307.2301972266012
0.0025                    0.0075                   305.26833738783796
0.0025                    0.0085                   303.2410585581023
0.0025                    0.0095                   301.15880225454055
0.0025                    0.0105                   298.96967397038503
0.0025                    0.0115                   297.0824363482421
0.0025                    0.0125                   295.26883072318583
0.0025                    0.0135                   293.8420848643443
0.0025                    0.0145                   293.52754958126945
0.0025                    0.0155                   293.2130142981946
0.0025                    0.0165                   293.2007882285603
0.0025                    0.0175                   293.4567893403624
0.0025                    0.0185                   293.7127904521644
0.0025                    0.0195                   294.6338919723994
0.0025                    0.0205                   295.730221377942
0.0025                    0.0215                   296.82655078348455
0.0025                    0.0225                   297.8363003030178
0.0025                    0.0235                   298.8229661750416
0.0025                    0.0245                   299.8044589685297
0.0025                    0.0255                   300.612380656524
0.0025                    0.0265                   301.4023556402099
0.0025                    0.0275                   302.22592510493496
0.0025                    0.0285                   303.3320739599485
0.0025                    0.0295                   304.3006291298172
0.0025                    0.0305                   305.4388329966175
0.0025                    0.0315                   306.74447345527994
0.0035                    -0.0315                  364.9749818616121
0.0035                    -0.0305                  364.0100164691621
0.0035                    -0.0295                  363.19310698491563
0.0035                    -0.0285                  362.2812764483192
0.0035                    -0.0275                  360.46694633529404
0.0035                    -0.0265                  358.52899956494474
0.0035                    -0.0255                  356.0406492919822
0.0035                    -0.0245                  349.6204481757574
0.0035                    -0.0235                  342.74585566544454
0.0035                    -0.0225                  335.5260176098002
0.0035                    -0.0215                  330.5787261956707
0.0035                    -0.0205                  325.15744075827934
0.0035                    -0.0195                  319.9198372873969
0.0035                    -0.0185                  319.1513765274025
0.0035                    -0.0175                  317.98662406237196
0.0035                    -0.0165                  316.7927315864302
0.0035                    -0.0155                  316.70817156154794
0.0035                    -0.0145                  316.3877268438132
0.0035                    -0.0135                  316.08297267605127
0.0035                    -0.0125                  316.2782954772009
0.0035                    -0.0115                  316.1947583402517
0.0035                    -0.0105                  316.154177765637
0.0035                    -0.0095                  316.56029148822984
0.0035                    -0.0085                  316.57524293087454
0.0035                    -0.0075                  316.6316480622866
0.0035                    -0.0065                  317.02143139144744
0.0035                    -0.0055                  317.05022621018446
0.0035                    -0.0045                  317.02848577764973
0.0035                    -0.0035                  316.99556557779147
0.0035                    -0.0025                  316.9050975129617
0.0035                    -0.0015                  316.5781620657615
0.0035                    -5.0E-4                  315.89184645349644
0.0035                    5.0E-4                   315.50319841862347
0.0035                    0.0015                   314.740841796016
0.0035                    0.0025                   313.5523902879362
0.0035                    0.0035                   312.62842465923717
0.0035                    0.0045                   311.50123277059197
0.0035                    0.0055                   310.09294375833997
0.0035                    0.0065                   308.1310839195767
0.0035                    0.0075                   306.30382223105676
0.0035                    0.0085                   304.48189085670754
0.0035                    0.0095                   302.3996345531458
0.0035                    0.0105                   299.5516474568466
0.0035                    0.0115                   296.9425164047576
0.0035                    0.0125                   295.12891077970136
0.0035                    0.0135                   294.03731336039306
0.0035                    0.0145                   293.44624299781617
0.0035                    0.0155                   293.1960430502862
0.0035                    0.0165                   293.1916083312274
0.0035                    0.0175                   293.417142803318
0.0035                    0.0185                   293.89849592146896
0.0035                    0.0195                   294.69839855965597
0.0035                    0.0205                   295.79472796519855
0.0035                    0.0215                   296.9969801201437
0.0035                    0.0225                   298.2034810636077
0.0035                    0.0235                   299.1901469356315
0.0035                    0.0245                   300.0653202761806
0.0035                    0.0255                   300.86105485586876
0.0035                    0.0265                   301.7084642567442
0.0035                    0.0275                   302.30248522562067
0.0035                    0.0285                   303.37176692597734
0.0035                    0.0295                   304.3744240337406
0.0035                    0.0305                   305.54640166406267
0.0035                    0.0315                   306.78540223838115
0.0045                    -0.0315                  361.88117808582086
0.0045                    -0.0305                  360.8133915834076
0.0045                    -0.0295                  359.7456655677669
0.0045                    -0.0285                  357.86930624654354
0.0045                    -0.0275                  356.0353422863534
0.0045                    -0.0265                  354.2013783261633
0.0045                    -0.0255                  348.99082991347063
0.0045                    -0.0245                  342.57062879724583
0.0045                    -0.0235                  336.150427681021
0.0045                    -0.0225                  330.5691358750732
0.0045                    -0.0215                  325.6218444609437
0.0045                    -0.0205                  320.67455304681425
0.0045                    -0.0195                  318.6974779679826
0.0045                    -0.0185                  317.9290172079881
0.0045                    -0.0175                  317.1364115446246
0.0045                    -0.0165                  316.7689065443547
0.0045                    -0.0155                  316.6843465194724
0.0045                    -0.0145                  316.5656316606028
0.0045                    -0.0135                  316.6442315156138
0.0045                    -0.0125                  316.8395543167634
0.0045                    -0.0115                  316.9770190935374
0.0045                    -0.0105                  317.2937439086458
0.0045                    -0.0095                  317.69985763123884
0.0045                    -0.0085                  318.00386832843
0.0045                    -0.0075                  318.34363244320406
0.0045                    -0.0065                  318.733415772365
0.0045                    -0.0055                  319.01116920946487
0.0045                    -0.0045                  318.9791278798225
0.0045                    -0.0035                  318.9462076799642
0.0045                    -0.0025                  318.8873977499796
0.0045                    -0.0015                  318.1957611181716
0.0045                    -5.0E-4                  317.5041244863637
0.0045                    5.0E-4                   316.87534594889127
0.0045                    0.0015                   315.66351811758227
0.0045                    0.0025                   314.45169028627333
0.0045                    0.0035                   313.3199381021706
0.0045                    0.0045                   312.00622890041313
0.0045                    0.0055                   310.69251969865576
0.0045                    0.0065                   309.082688315992
0.0045                    0.0075                   307.34227306441403
0.0045                    0.0085                   305.60185781283616
0.0045                    0.0095                   303.25674572735784
0.0045                    0.0105                   300.13362094330813
0.0045                    0.0115                   297.0104961592584
0.0045                    0.0125                   295.423724959473
0.0045                    0.0135                   294.36447492815523
0.0045                    0.0145                   293.36493641436294
0.0045                    0.0155                   293.3020071807437
0.0045                    0.0165                   293.2975724616849
0.0045                    0.0175                   293.40126764181264
0.0045                    0.0185                   294.1608439460912
0.0045                    0.0195                   294.92042025036966
0.0045                    0.0205                   295.90481118177536
0.0045                    0.0215                   297.18421195683845
0.0045                    0.0225                   298.4636127319016
0.0045                    0.0235                   299.55732769622136
0.0045                    0.0245                   300.32631738367616
0.0045                    0.0255                   301.0774902404953
0.0045                    0.0265                   301.6685466210424
0.0045                    0.0275                   302.17639910384696
0.0045                    0.0285                   303.1990203166081
0.0045                    0.0295                   304.34676212341446
0.0045                    0.0305                   305.43071849188885
0.0045                    0.0315                   306.50231611194323
0.0055                    -0.0315                  358.7873743100296
0.0055                    -0.0305                  357.7199143722878
0.0055                    -0.0295                  356.63482175442937
0.0055                    -0.0285                  354.1170668697016
0.0055                    -0.0275                  352.2196147177485
0.0055                    -0.0265                  349.2126387013187
0.0055                    -0.0255                  343.89882423473506
0.0055                    -0.0245                  337.3311875591483
0.0055                    -0.0235                  331.4544966420584
0.0055                    -0.0225                  327.05524120906773
0.0055                    -0.0215                  322.1034983649216
0.0055                    -0.0205                  318.913231426111
0.0055                    -0.0195                  318.254346180432
0.0055                    -0.0185                  317.47541857912256
0.0055                    -0.0175                  317.0824968785273
0.0055                    -0.0165                  317.1132452474742
0.0055                    -0.0155                  317.0237439484679
0.0055                    -0.0145                  317.240805245345
0.0055                    -0.0135                  317.64303253692606
0.0055                    -0.0125                  317.8348144848396
0.0055                    -0.0115                  318.3497359083262
0.0055                    -0.0105                  318.9683008997393
0.0055                    -0.0095                  319.3723914014402
0.0055                    -0.0085                  319.88020367004367
0.0055                    -0.0075                  320.3551793111934
0.0055                    -0.0065                  320.74461361541836
0.0055                    -0.0055                  320.8585267977592
0.0055                    -0.0045                  320.8050910068466
0.0055                    -0.0035                  320.77223792019134
0.0055                    -0.0025                  320.1832789166492
0.0055                    -0.0015                  319.4307324714978
0.0055                    -5.0E-4                  318.73930754611854
0.0055                    5.0E-4                   317.3176373251766
0.0055                    0.0015                   315.9938302596031
0.0055                    0.0025                   314.7810999419728
0.0055                    0.0035                   313.11103350232986
0.0055                    0.0045                   311.72044311511536
0.0055                    0.0055                   310.4004047244729
0.0055                    0.0065                   308.9489357785264
0.0055                    0.0075                   307.21286200809885
0.0055                    0.0085                   305.4608642556396
0.0055                    0.0095                   303.2200157038729
0.0055                    0.0105                   300.09677918765885
0.0055                    0.0115                   297.1577428960636
0.0055                    0.0125                   295.2936428017927
0.0055                    0.0135                   294.2358724592383
0.0055                    0.0145                   293.47151305228584
0.0055                    0.0155                   293.29876366694657
0.0055                    0.0165                   293.29461451644465
0.0055                    0.0175                   293.50647623691725
0.0055                    0.0185                   294.1781735294381
0.0055                    0.0195                   294.9361968169678
0.0055                    0.0205                   296.1605127472241
0.0055                    0.0215                   297.42669035483004
0.0055                    0.0225                   298.6928679624359
0.0055                    0.0235                   299.6086565659101
0.0055                    0.0245                   300.13473596250776
0.0055                    0.0255                   300.7173628596737
0.0055                    0.0265                   301.37199228434145
0.0055                    0.0275                   302.0336308459536
0.0055                    0.0285                   302.91370507451165
0.0055                    0.0295                   303.8736539636681
0.0055                    0.0305                   305.00101084182666
0.0055                    0.0315                   306.21412689756403
0.0065                    -0.0315                  355.9986893545294
0.0065                    -0.0305                  354.62672463470557
0.0065                    -0.0295                  353.424042054856
0.0065                    -0.0285                  350.9062871701283
0.0065                    -0.0275                  348.3911258788015
0.0065                    -0.0265                  343.37278656649517
0.0065                    -0.0255                  338.35444725418904
0.0065                    -0.0245                  332.24313503686534
0.0065                    -0.0235                  327.7512847028521
0.0065                    -0.0225                  323.57740750205943
0.0065                    -0.0215                  319.12219323870636
0.0065                    -0.0205                  318.5305359547507
0.0065                    -0.0195                  317.938878670795
0.0065                    -0.0185                  317.2790630026336
0.0065                    -0.0175                  317.399876402632
0.0065                    -0.0165                  317.52068980263044
0.0065                    -0.0155                  317.52096500940326
0.0065                    -0.0145                  318.12725094742706
0.0065                    -0.0135                  318.73353688545086
0.0065                    -0.0125                  319.0410674839436
0.0065                    -0.0115                  319.92049003920414
0.0065                    -0.0105                  320.7999125944646
0.0065                    -0.0095                  321.26171939304714
0.0065                    -0.0085                  321.86751990117244
0.0065                    -0.0075                  322.4733204092977
0.0065                    -0.0065                  322.7705191752447
0.0065                    -0.0055                  322.6764832338744
0.0065                    -0.0045                  322.5856028317329
0.0065                    -0.0035                  322.3297014418814
0.0065                    -0.0025                  321.4147474389057
0.0065                    -0.0015                  320.52536499513525
0.0065                    -5.0E-4                  319.50233975478415
0.0065                    5.0E-4                   317.75719133733344
0.0065                    0.0015                   316.10761666553117
0.0065                    0.0025                   314.66609000001097
0.0065                    0.0035                   312.85105022839576
0.0065                    0.0045                   311.1596261395448
0.0065                    0.0055                   309.76701412503064
0.0065                    0.0065                   308.2921945419159
0.0065                    0.0075                   306.7186988005453
0.0065                    0.0085                   304.7087350328514
0.0065                    0.0095                   302.5409889938787
0.0065                    0.0105                   299.87869329424984
0.0065                    0.0115                   297.519429954683