% Model:              SIMBench260525.mph
% Version:            COMSOL 6.2.0.339
% Date:               May 27 2026, 17:38
% Dimension:          2
% Nodes:              4096
% Expressions:        1
% Description:        温度
% Length unit:        m
% x                       y                        T (K)
% mirrored_by_python_y_to_minus_y, coord_match_decimals=12
0.0005 -0.0315 354.121963256
0.0005 -0.0305 352.190532654
0.0005 -0.0295 350.259102051
0.0005 -0.0285 346.908332198
0.0005 -0.0275 343.591457204
0.0005 -0.0265 340.563482926
0.0005 -0.0255 338.329095017
0.0005 -0.0245 336.005206865
0.0005 -0.0235 334.207614069
0.0005 -0.0225 331.889687911
0.0005 -0.0215 329.478299946
0.0005 -0.0205 327.017390223
0.0005 -0.0195 321.96637832
0.0005 -0.0185 316.953255909
0.0005 -0.0175 311.810050124
0.0005 -0.0165 305.094606617
0.0005 -0.0155 298.264666793
0.0005 -0.0145 295.691823756
0.0005 -0.0135 295.001423201
0.0005 -0.0125 293.972005406
0.0005 -0.0115 293.992981929
0.0005 -0.0105 294.013958451
0.0005 -0.0095 293.431537881
0.0005 -0.0085 293.269878916
0.0005 -0.0075 293.294573806
0.0005 -0.0065 293.508662502
0.0005 -0.0055 294.355113224
0.0005 -0.0045 294.445830033
0.0005 -0.0035 294.536546842
0.0005 -0.0025 296.434013695
0.0005 -0.0015 297.42355766
0.0005 -0.0005 298.413101624
0.0005 0.0005 306.452798442
0.0005 0.0015 314.948583522
0.0005 0.0025 323.291480631
0.0005 0.0035 325.770602417
0.0005 0.0045 328.428975096
0.0005 0.0055 330.88332666
0.0005 0.0065 331.952419914
0.0005 0.0075 333.248794307
0.0005 0.0085 334.345257576
0.0005 0.0095 335.082943589
0.0005 0.0105 336.194658385
0.0005 0.0115 337.042415168
0.0005 0.0125 337.860134721
0.0005 0.0135 339.059844759
0.0005 0.0145 339.975225731
0.0005 0.0155 341.060880765
0.0005 0.0165 342.423007195
0.0005 0.0175 343.586039512
0.0005 0.0185 345.380147355
0.0005 0.0195 347.407150196
0.0005 0.0205 349.511954816
0.0005 0.0215 352.941832184
0.0005 0.0225 356.556379892
0.0005 0.0235 360.684840892
0.0005 0.0245 365.66184611
0.0005 0.0255 370.66756434
0.0005 0.0265 376.020757867
0.0005 0.0275 380.371039638
0.0005 0.0285 384.72132141
0.0005 0.0295 388.336339488
0.0005 0.0305 390.110005947
0.0005 0.0315 391.868697673
0.0015 -0.0315 353.70093745
0.0015 -0.0305 352.082993514
0.0015 -0.0295 349.474464262
0.0015 -0.0285 346.054981217
0.0015 -0.0275 342.723406152
0.0015 -0.0265 340.273233307
0.0015 -0.0255 338.204972289
0.0015 -0.0245 335.893957732
0.0015 -0.0235 334.610584371
0.0015 -0.0225 333.061703013
0.0015 -0.0215 330.874382845
0.0015 -0.0205 329.22060365
0.0015 -0.0195 325.678973844
0.0015 -0.0185 321.328754888
0.0015 -0.0175 317.451991926
0.0015 -0.0165 311.195240767
0.0015 -0.0155 304.136308309
0.0015 -0.0145 297.798580309
0.0015 -0.0135 296.997505739
0.0015 -0.0125 295.662968344
0.0015 -0.0115 295.066015464
0.0015 -0.0105 294.437028889
0.0015 -0.0095 293.555664146
0.0015 -0.0085 293.318753754
0.0015 -0.0075 293.350805786
0.0015 -0.0065 293.774603806
0.0015 -0.0055 294.740699147
0.0015 -0.0045 295.890157949
0.0015 -0.0035 296.569941036
0.0015 -0.0025 299.376116443
0.0015 -0.0015 301.444277408
0.0015 -0.0005 306.048398324
0.0015 0.0005 314.701098489
0.0015 0.0015 323.25375521
0.0015 0.0025 327.981081523
0.0015 0.0035 330.330104729
0.0015 0.0045 332.926646994
0.0015 0.0055 334.275621864
0.0015 0.0065 335.12092494
0.0015 0.0075 336.360016201
0.0015 0.0085 336.812521118
0.0015 0.0095 337.050972392
0.0015 0.0105 338.115386712
0.0015 0.0115 338.358839002
0.0015 0.0125 338.495734916
0.0015 0.0135 339.695444954
0.0015 0.0145 340.105987945
0.0015 0.0155 340.562386467
0.0015 0.0165 341.911363391
0.0015 0.0175 342.798881892
0.0015 0.0185 343.864241818
0.0015 0.0195 345.907588424
0.0015 0.0205 348.091357956
0.0015 0.0215 350.601595346
0.0015 0.0225 354.381596506
0.0015 0.0235 358.89073039
0.0015 0.0245 363.542918017
0.0015 0.0255 368.714235471
0.0015 0.0265 374.273359576
0.0015 0.0275 379.400825841
0.0015 0.0285 383.524359324
0.0015 0.0295 387.403341231
0.0015 0.0305 389.804553514
0.0015 0.0315 391.021064958
0.0025 -0.0315 353.264770204
0.0025 -0.0305 351.665953046
0.0025 -0.0295 348.830919879
0.0025 -0.0285 345.29465176
0.0025 -0.0275 342.051244707
0.0025 -0.0265 339.998866701
0.0025 -0.0255 338.042600866
0.0025 -0.0245 336.515820409
0.0025 -0.0235 335.283546142
0.0025 -0.0225 334.051271876
0.0025 -0.0215 332.537755792
0.0025 -0.0205 330.884985715
0.0025 -0.0195 328.999820333
0.0025 -0.0185 325.175099765
0.0025 -0.0175 321.297685861
0.0025 -0.0165 316.979615804
0.0025 -0.0155 309.870506544
0.0025 -0.0145 302.761397284
0.0025 -0.0135 299.068574652
0.0025 -0.0125 297.688469435
0.0025 -0.0115 295.840674582
0.0025 -0.0105 294.68194347
0.0025 -0.0095 293.67979041
0.0025 -0.0085 293.431817094
0.0025 -0.0075 293.532833465
0.0025 -0.0065 294.04054511
0.0025 -0.0055 295.06469104
0.0025 -0.0045 296.459485546
0.0025 -0.0035 299.913258103
0.0025 -0.0025 302.716423558
0.0025 -0.0015 305.52810527
0.0025 -0.0005 313.607856019
0.0025 0.0005 322.352409392
0.0025 0.0015 330.001520034
0.0025 0.0025 332.409909106
0.0025 0.0035 334.796280159
0.0025 0.0045 336.915170954
0.0025 0.0055 337.761322657
0.0025 0.0065 338.60747436
0.0025 0.0075 339.314833785
0.0025 0.0085 339.556894205
0.0025 0.0095 339.798954625
0.0025 0.0105 339.898546601
0.0025 0.0115 340.023730966
0.0025 0.0125 340.148915331
0.0025 0.0135 340.195835344
0.0025 0.0145 340.57229769
0.0025 0.0155 340.948760036
0.0025 0.0165 341.378499135
0.0025 0.0175 342.271517265
0.0025 0.0185 343.164535394
0.0025 0.0195 344.584307449
0.0025 0.0205 346.770316923
0.0025 0.0215 348.956326397
0.0025 0.0225 352.404849454
0.0025 0.0235 356.891491349
0.0025 0.0245 361.378133244
0.0025 0.0255 366.557379096
0.0025 0.0265 372.052725807
0.0025 0.0275 377.581172053
0.0025 0.0285 382.108883595
0.0025 0.0295 385.962075263
0.0025 0.0305 388.527425792
0.0025 0.0315 390.173432244
0.0035 -0.0315 352.872447486
0.0035 -0.0305 351.155498473
0.0035 -0.0295 348.495769665
0.0035 -0.0285 345.189832875
0.0035 -0.0275 342.555557211
0.0035 -0.0265 340.913458306
0.0035 -0.0255 338.957192471
0.0035 -0.0245 338.137620625
0.0035 -0.0235 337.198346309
0.0035 -0.0225 335.925090141
0.0035 -0.0215 334.566580962
0.0035 -0.0205 332.923060871
0.0035 -0.0195 330.238927036
0.0035 -0.0185 326.867246218
0.0035 -0.0175 323.012966265
0.0035 -0.0165 320.532098111
0.0035 -0.0155 315.069460611
0.0035 -0.0145 308.418109598
0.0035 -0.0135 302.628207378
0.0035 -0.0125 301.248102161
0.0035 -0.0115 297.554797909
0.0035 -0.0105 294.890730207
0.0035 -0.0095 294.0100273
0.0035 -0.0085 293.521920499
0.0035 -0.0075 293.569357112
0.0035 -0.0065 294.43256765
0.0035 -0.0055 295.698910275
0.0035 -0.0045 297.654649358
0.0035 -0.0035 304.008266208
0.0035 -0.0025 307.807084825
0.0035 -0.0015 312.539681418
0.0035 -0.0005 319.372866472
0.0035 0.0005 328.117419844
0.0035 0.0015 332.636947947
0.0035 0.0025 335.517896153
0.0035 0.0035 337.904267207
0.0035 0.0045 340.336615143
0.0035 0.0055 341.900058253
0.0035 0.0065 342.74708299
0.0035 0.0075 343.668098069
0.0035 0.0085 344.167772673
0.0035 0.0095 344.352295132
0.0035 0.0105 343.950049168
0.0035 0.0115 343.911538029
0.0035 0.0125 343.866659449
0.0035 0.0135 342.977885741
0.0035 0.0145 343.042537582
0.0035 0.0155 343.179578476
0.0035 0.0165 342.577586481
0.0035 0.0175 343.189006496
0.0035 0.0185 343.855097222
0.0035 0.0195 344.038419682
0.0035 0.0205 345.961290788
0.0035 0.0215 347.99058146
0.0035 0.0225 349.780049831
0.0035 0.0235 354.100525448
0.0035 0.0245 358.68822787
0.0035 0.0255 363.377804275
0.0035 0.0265 368.829764713
0.0035 0.0275 374.492573085
0.0035 0.0285 380.215004149
0.0035 0.0295 384.41163797
0.0035 0.0305 386.491685497
0.0035 0.0315 388.470123298
0.0045 -0.0315 352.843629631
0.0045 -0.0305 350.877386152
0.0045 -0.0295 348.564333774
0.0045 -0.0285 345.740599165
0.0045 -0.0275 343.032901591
0.0045 -0.0265 341.471524706
0.0045 -0.0255 340.055056032
0.0045 -0.0245 339.566627107
0.0045 -0.0235 339.082270172
0.0045 -0.0225 337.776325918
0.0045 -0.0215 336.417816739
0.0045 -0.0205 334.627077955
0.0045 -0.0195 331.478033738
0.0045 -0.0185 328.328989522
0.0045 -0.0175 325.481504914
0.0045 -0.0165 323.00063676
0.0045 -0.0155 320.268414677
0.0045 -0.0145 314.36573553
0.0045 -0.0135 308.564155584
0.0045 -0.0125 303.800002331
0.0045 -0.0115 299.470210924
0.0045 -0.0105 295.140419517
0.0045 -0.0095 294.460073538
0.0045 -0.0085 293.827966438
0.0045 -0.0075 293.828961683
0.0045 -0.0065 295.157391583
0.0045 -0.0055 296.405169452
0.0045 -0.0045 300.566250912
0.0045 -0.0035 306.919867762
0.0045 -0.0025 312.897746092
0.0045 -0.0015 319.551257567
0.0045 -0.0005 326.232231534
0.0045 0.0005 332.122907588
0.0045 0.0015 335.27237586
0.0045 0.0025 338.421844132
0.0045 0.0035 341.037243491
0.0045 0.0045 343.474015213
0.0045 0.0055 345.910786936
0.0045 0.0065 346.931161751
0.0045 0.0075 347.85217683
0.0045 0.0085 348.77319191
0.0045 0.0095 348.572289266
0.0045 0.0105 348.170043302
0.0045 0.0115 347.799345092
0.0045 0.0125 347.137880121
0.0045 0.0135 346.249106413
0.0045 0.0145 345.512777473
0.0045 0.0155 345.054231836
0.0045 0.0165 344.452239841
0.0045 0.0175 344.106495728
0.0045 0.0185 344.341381532
0.0045 0.0195 344.524703993
0.0045 0.0205 345.152264653
0.0045 0.0215 346.943107102
0.0045 0.0225 348.732575472
0.0045 0.0235 351.324776225
0.0045 0.0245 356.01435263
0.0045 0.0255 360.703929035
0.0045 0.0265 365.724694744
0.0045 0.0275 371.462214249
0.0045 0.0285 377.199733754
0.0045 0.0295 382.689337088
0.0045 0.0305 384.820440604
0.0045 0.0315 386.930513991
0.0055 -0.0315 352.823612078
0.0055 -0.0305 351.091444373
0.0055 -0.0295 348.981806759
0.0055 -0.0285 346.238141574
0.0055 -0.0275 343.51024597
0.0055 -0.0265 342.614702583
0.0055 -0.0255 341.921235186
0.0055 -0.0245 341.378301458
0.0055 -0.0235 340.226934656
0.0055 -0.0225 338.381410048
0.0055 -0.0215 337.012863302
0.0055 -0.0205 333.251636718
0.0055 -0.0195 329.698714444
0.0055 -0.0185 326.539697383
0.0055 -0.0175 323.359709813
0.0055 -0.0165 320.915245429
0.0055 -0.0155 318.845736521
0.0055 -0.0145 315.295697674
0.0055 -0.0135 309.487430365
0.0055 -0.0125 304.362799841
0.0055 -0.0115 299.92683244
0.0055 -0.0105 296.243266051
0.0055 -0.0095 294.336534232
0.0055 -0.0085 293.704427133
0.0055 -0.0075 293.936775392
0.0055 -0.0065 294.936000207
0.0055 -0.0055 296.671592134
0.0055 -0.0045 301.697470069
0.0055 -0.0035 308.033692809
0.0055 -0.0025 314.376134549
0.0055 -0.0015 320.931639737
0.0055 -0.0005 327.68830121
0.0055 0.0005 331.402200679
0.0055 0.0015 334.625645747
0.0055 0.0025 337.922589436
0.0055 0.0035 342.051086925
0.0055 0.0045 344.532828293
0.0055 0.0055 347.183476032
0.0055 0.0065 349.802653506
0.0055 0.0075 350.720681
0.0055 0.0085 351.68637156
0.0055 0.0095 352.22956347
0.0055 0.0105 351.824749114
0.0055 0.0115 351.295482323
0.0055 0.0125 350.49757294
0.0055 0.0135 349.609357002
0.0055 0.0145 348.458382458
0.0055 0.0155 347.418099114
0.0055 0.0165 346.820210477
0.0055 0.0175 345.898851096
0.0055 0.0185 345.425843857
0.0055 0.0195 345.612954632
0.0055 0.0205 345.570482503
0.0055 0.0215 346.504069224
0.0055 0.0225 348.294330763
0.0055 0.0235 350.03481661
0.0055 0.0245 353.868360817
0.0055 0.0255 358.603588763
0.0055 0.0265 363.636558445
0.0055 0.0275 369.137285663
0.0055 0.0285 374.88739932
0.0055 0.0295 380.798986041
0.0055 0.0305 383.117038264
0.0055 0.0315 385.390904683
0.0065 -0.0315 353.181655161
0.0065 -0.0305 351.40280178
0.0065 -0.0295 349.375586539
0.0065 -0.0285 346.813083667
0.0065 -0.0275 344.776638879
0.0065 -0.0265 344.329879119
0.0065 -0.0255 343.807982394
0.0065 -0.0245 343.20934966
0.0065 -0.0235 341.127749626
0.0065 -0.0225 339.0402466
0.0065 -0.0215 336.5628723
0.0065 -0.0205 332.023713915
0.0065 -0.0195 327.604768574
0.0065 -0.0185 324.399646631
0.0065 -0.0175 321.16569767
0.0065 -0.0165 318.299144775
0.0065 -0.0155 316.654542833
0.0065 -0.0145 315.009940891
0.0065 -0.0135 310.096528956
0.0065 -0.0125 305.072561249
0.0065 -0.0115 300.250918942
0.0065 -0.0105 297.375810169
0.0065 -0.0095 294.699089001
0.0065 -0.0085 293.942532803
0.0065 -0.0075 294.277244695
0.0065 -0.0065 294.714608831
0.0065 -0.0055 298.430281093
0.0065 -0.0045 303.297961307
0.0065 -0.0035 308.925467653
0.0065 -0.0025 315.273999817
0.0065 -0.0015 321.622531982
0.0065 -0.0005 327.039135169
0.0065 0.0005 330.172211578
0.0065 0.0015 333.329710993
0.0065 0.0025 337.233303766
0.0065 0.0035 341.575965305
0.0065 0.0045 344.991930407
0.0065 0.0055 348.120555659
0.0065 0.0065 351.421700429
0.0065 0.0075 353.17008468
0.0065 0.0085 354.231795666
0.0065 0.0095 355.309600281
0.0065 0.0105 355.307547556
0.0065 0.0115 354.581003677
0.0065 0.0125 353.850625989
0.0065 0.0135 352.954597961
0.0065 0.0145 351.497627564
0.0065 0.0155 350.040657167
0.0065 0.0165 349.22438677
0.0065 0.0175 348.024096236
0.0065 0.0185 346.823805702
0.0065 0.0195 346.760080226
0.0065 0.0205 346.564390397
0.0065 0.0215 346.368700568
0.0065 0.0225 347.96663893
0.0065 0.0235 349.683941981
0.0065 0.0245 351.770852686
0.0065 0.0255 356.611646196
0.0065 0.0265 361.717037547
0.0065 0.0275 366.822428897
0.0065 0.0285 372.716391148
0.0065 0.0295 378.627977868
0.0065 0.0305 381.257635781
0.0065 0.0315 383.642732437
0.0075 -0.0315 353.614881526
0.0075 -0.0305 351.80990023
0.0075 -0.0295 350.186934921
0.0075 -0.0285 348.241938739
0.0075 -0.0275 346.205493951
0.0075 -0.0265 345.644754429
0.0075 -0.0255 345.250624745
0.0075 -0.0245 343.462809967
0.0075 -0.0235 341.101936704
0.0075 -0.0225 338.886691101
0.0075 -0.0215 333.943877831
0.0075 -0.0205 329.395871112
0.0075 -0.0195 325.064077734
0.0075 -0.0185 321.685555929
0.0075 -0.0175 318.457379959
0.0075 -0.0165 316.312213628
0.0075 -0.0155 314.722980897
0.0075 -0.0145 313.073643072
0.0075 -0.0135 310.638380271
0.0075 -0.0125 305.613011508
0.0075 -0.0115 300.806597398
0.0075 -0.0105 297.604737956
0.0075 -0.0095 294.902950289
0.0075 -0.0085 293.960052612
0.0075 -0.0075 294.299787667
0.0075 -0.0065 295.031980214
0.0075 -0.0055 298.690098303
0.0075 -0.0045 303.624050005
0.0075 -0.0035 309.458928294
0.0075 -0.0025 315.835427104
0.0075 -0.0015 322.194132304
0.0075 -0.0005 325.209395826
0.0075 0.0005 328.361775832
0.0075 0.0015 331.59511815
0.0075 0.0025 335.709974937
0.0075 0.0035 340.0891045
0.0075 0.0045 344.785503725
0.0075 0.0055 348.338391402
0.0075 0.0065 351.651152965
0.0075 0.0075 355.051546135
0.0075 0.0085 356.123044477
0.0075 0.0095 357.19454282
0.0075 0.0105 357.9542837
0.0075 0.0115 357.216371598
0.0075 0.0125 356.478459496
0.0075 0.0135 355.529340726
0.0075 0.0145 354.064551452
0.0075 0.0155 352.599762178
0.0075 0.0165 351.145573285
0.0075 0.0175 349.941115147
0.0075 0.0185 348.73665701
0.0075 0.0195 347.745743465
0.0075 0.0205 347.549760484
0.0075 0.0215 347.353777504
0.0075 0.0225 347.847643389
0.0075 0.0235 349.511809462
0.0075 0.0245 351.175975536
0.0075 0.0255 354.72911981
0.0075 0.0265 359.860998157
0.0075 0.0275 365.03185267
0.0075 0.0285 370.775923216
0.0075 0.0295 376.519993762
0.0075 0.0305 379.586992489
0.0075 0.0315 382.07268441
0.0085 -0.0315 354.106061459
0.0085 -0.0305 352.64259232
0.0085 -0.0295 351.125798884
0.0085 -0.0285 349.385208995
0.0085 -0.0275 347.634349023
0.0085 -0.0265 346.793350794
0.0085 -0.0255 346.129541588
0.0085 -0.0245 344.241332221
0.0085 -0.0235 340.368897804
0.0085 -0.0225 337.21072093
0.0085 -0.0215 331.229121977
0.0085 -0.0205 325.94601972
0.0085 -0.0195 322.186697555
0.0085 -0.0185 318.680484731
0.0085 -0.0175 315.609637661
0.0085 -0.0165 314.324332966
0.0085 -0.0155 312.9613217
0.0085 -0.0145 311.385840705
0.0085 -0.0135 309.908180317
0.0085 -0.0125 306.039242335
0.0085 -0.0115 301.525998672
0.0085 -0.0105 297.280304535
0.0085 -0.0095 295.192082073
0.0085 -0.0085 294.343719891
0.0085 -0.0075 294.135511549
0.0085 -0.0065 295.851812153
0.0085 -0.0055 298.120735286
0.0085 -0.0045 302.976097574
0.0085 -0.0035 309.577777785
0.0085 -0.0025 316.097743242
0.0085 -0.0015 320.767698558
0.0085 -0.0005 323.03959969
0.0085 0.0005 325.925899282
0.0085 0.0015 329.454265363
0.0085 0.0025 333.151424224
0.0085 0.0035 337.530553788
0.0085 0.0045 342.716316736
0.0085 0.0055 347.488128832
0.0085 0.0065 350.822531996
0.0085 0.0075 354.401077024
0.0085 0.0085 357.016359057
0.0085 0.0095 358.033768887
0.0085 0.0105 358.82881713
0.0085 0.0115 358.910935868
0.0085 0.0125 358.121454374
0.0085 0.0135 357.204198913
0.0085 0.0145 355.995502679
0.0085 0.0155 354.49971654
0.0085 0.0165 352.950338713
0.0085 0.0175 351.603893579
0.0085 0.0185 350.36298698
0.0085 0.0195 349.07726026
0.0085 0.0205 348.526214889
0.0085 0.0215 348.29331332
0.0085 0.0225 348.039074391
0.0085 0.0235 349.66816934
0.0085 0.0245 351.054262002
0.0085 0.0255 354.202138832
0.0085 0.0265 358.207416086
0.0085 0.0275 363.261509093
0.0085 0.0285 369.167067273
0.0085 0.0295 375.220587917
0.0085 0.0305 378.163795758
0.0085 0.0315 380.515619586
0.0095 -0.0315 354.960585333
0.0095 -0.0305 353.572149725
0.0095 -0.0295 352.064662847
0.0095 -0.0285 350.385553246
0.0095 -0.0275 348.991539682
0.0095 -0.0265 347.871765231
0.0095 -0.0255 347.008458432
0.0095 -0.0245 345.019854476
0.0095 -0.0235 340.313343792
0.0095 -0.0225 333.811779059
0.0095 -0.0215 327.938029101
0.0095 -0.0205 322.893046316
0.0095 -0.0195 319.39093897
0.0095 -0.0185 315.885720123
0.0095 -0.0175 313.926500722
0.0095 -0.0165 312.618022934
0.0095 -0.0155 311.309545147
0.0095 -0.0145 310.251178193
0.0095 -0.0135 308.752556108
0.0095 -0.0125 306.40425054
0.0095 -0.0115 301.961580366
0.0095 -0.0105 297.518910191
0.0095 -0.0095 295.564672537
0.0095 -0.0085 294.718504209
0.0095 -0.0075 294.183752149
0.0095 -0.0065 296.350515091
0.0095 -0.0055 298.636831473
0.0095 -0.0045 302.905042501
0.0095 -0.0035 309.524327692
0.0095 -0.0025 316.143612882
0.0095 -0.0015 319.017794388
0.0095 -0.0005 321.273929325
0.0095 0.0005 323.567893965
0.0095 0.0015 327.269911556
0.0095 0.0025 330.971929148
0.0095 0.0035 335.294677367
0.0095 0.0045 340.56511388
0.0095 0.0055 345.835550394
0.0095 0.0065 350.058852152
0.0095 0.0075 353.638631044
0.0095 0.0085 357.218409936
0.0095 0.0095 358.708114061
0.0095 0.0105 359.498023536
0.0095 0.0115 360.287933011
0.0095 0.0125 359.643032914
0.0095 0.0135 358.721697494
0.0095 0.0145 357.800362075
0.0095 0.0155 356.298669028
0.0095 0.0165 354.736340932
0.0095 0.0175 353.194554163
0.0095 0.0185 351.888539251
0.0095 0.0195 350.581620224
0.0095 0.0205 349.416121335
0.0095 0.0215 349.135150418
0.0095 0.0225 348.854179502
0.0095 0.0235 349.518862842
0.0095 0.0245 350.904955504
0.0095 0.0255 354.069080772
0.0095 0.0265 358.036645775
0.0095 0.0275 362.224840286
0.0095 0.0285 367.880210143
0.0095 0.0295 373.933730788
0.0095 0.0305 376.831131443
0.0095 0.0315 379.363855454
0.0105 -0.0315 355.733486915
0.0105 -0.0305 354.362055169
0.0105 -0.0295 353.139610615
0.0105 -0.0285 351.865980383
0.0105 -0.0275 350.471966819
0.0105 -0.0265 349.346190323
0.0105 -0.0255 348.293543564
0.0105 -0.0245 343.108526596
0.0105 -0.0235 336.292628238
0.0105 -0.0225 329.565057419
0.0105 -0.0215 323.701219719
0.0105 -0.0205 320.217495919
0.0105 -0.0195 316.729603211
0.0105 -0.0185 313.73802747
0.0105 -0.0175 312.6559754
0.0105 -0.0165 311.448381199
0.0105 -0.0155 310.707177688
0.0105 -0.0145 310.370796979
0.0105 -0.0135 308.872174894
0.0105 -0.0125 305.585222223
0.0105 -0.0115 301.653345781
0.0105 -0.0105 297.896454505
0.0105 -0.0095 295.55167358
0.0105 -0.0085 294.579361655
0.0105 -0.0075 294.751237762
0.0105 -0.0065 295.882205057
0.0105 -0.0055 298.392369356
0.0105 -0.0045 302.745854971
0.0105 -0.0035 308.776338652
0.0105 -0.0025 314.211729538
0.0105 -0.0015 318.047638054
0.0105 -0.0005 320.303772991
0.0105 0.0005 322.081043621
0.0105 0.0015 324.723620783
0.0105 0.0025 328.426947023
0.0105 0.0035 332.158667874
0.0105 0.0045 337.087001158
0.0105 0.0055 342.355059604
0.0105 0.0065 347.615841847
0.0105 0.0075 351.209218559
0.0105 0.0085 354.83541957
0.0105 0.0095 358.175468066
0.0105 0.0105 358.965377542
0.0105 0.0115 359.691191461
0.0105 0.0125 360.028329597
0.0105 0.0135 359.106994178
0.0105 0.0145 358.166166389
0.0105 0.0155 357.044197588
0.0105 0.0165 355.481869491
0.0105 0.0175 354.103090577
0.0105 0.0185 352.811143879
0.0105 0.0195 351.504224852
0.0105 0.0205 350.470429211
0.0105 0.0215 349.724372705
0.0105 0.0225 349.558657831
0.0105 0.0235 350.336799687
0.0105 0.0245 351.113190519
0.0105 0.0255 353.754558914
0.0105 0.0265 357.57298552
0.0105 0.0275 361.810278307
0.0105 0.0285 367.367993929
0.0105 0.0295 372.912884148
0.0105 0.0305 375.821176634
0.0105 0.0315 378.434508054
0.0115 -0.0315 356.562887216
0.0115 -0.0305 355.387411447
0.0115 -0.0295 354.216461131
0.0115 -0.0285 353.076062488
0.0115 -0.0275 351.935663845
0.0115 -0.0265 349.078198367
0.0115 -0.0255 345.087480132
0.0115 -0.0245 339.855365143
0.0115 -0.0235 332.693271124
0.0115 -0.0225 325.531177104
0.0115 -0.0215 321.025669322
0.0115 -0.0205 317.585842859
0.0115 -0.0195 314.181534816
0.0115 -0.0185 312.497476362
0.0115 -0.0175 311.413743803
0.0115 -0.0165 310.474703167
0.0115 -0.0155 310.172021207
0.0115 -0.0145 309.866024971
0.0115 -0.0135 308.11609888
0.0115 -0.0125 304.682508988
0.0115 -0.0115 301.248919096
0.0115 -0.0105 298.656502921
0.0115 -0.0095 296.311721996
0.0115 -0.0085 294.76176124
0.0115 -0.0075 295.318723376
0.0115 -0.0065 295.875685512
0.0115 -0.0055 298.994313745
0.0115 -0.0045 303.34779936
0.0115 -0.0035 308.028349612
0.0115 -0.0025 312.133225522
0.0115 -0.0015 316.229024917
0.0115 -0.0005 319.133504977
0.0115 0.0005 320.777911226
0.0115 0.0015 322.422317474
0.0115 0.0025 325.897270461
0.0115 0.0035 329.628991313
0.0115 0.0045 333.608888435
0.0115 0.0055 338.87136204
0.0115 0.0065 344.132144283
0.0115 0.0075 348.779806074
0.0115 0.0085 352.476064178
0.0115 0.0095 356.172982995
0.0115 0.0105 358.417678421
0.0115 0.0115 359.081341262
0.0115 0.0125 359.745004103
0.0115 0.0135 359.485448972
0.0115 0.0145 358.531191247
0.0115 0.0155 357.576933522
0.0115 0.0165 356.296955388
0.0115 0.0175 355.011626991
0.0115 0.0185 353.726298595
0.0115 0.0195 352.548098471
0.0115 0.0205 351.569734878
0.0115 0.0215 350.591371285
0.0115 0.0225 350.437471116
0.0115 0.0235 351.021767016
0.0115 0.0245 351.606062917
0.0115 0.0255 354.062994897
0.0115 0.0265 357.296931866
0.0115 0.0275 361.395716329
0.0115 0.0285 366.908816859
0.0115 0.0295 372.416573857
0.0115 0.0305 375.193249101
0.0115 0.0315 377.568528136
0.0125 -0.0315 357.515159287
0.0125 -0.0305 356.464494338
0.0125 -0.0295 355.293311648
0.0125 -0.0285 353.995217186
0.0125 -0.0275 352.147921321
0.0125 -0.0265 347.09902126
0.0125 -0.0255 341.730554792
0.0125 -0.0245 336.602203689
0.0125 -0.0235 329.496958867
0.0125 -0.0225 322.549915643
0.0125 -0.0215 318.969822181
0.0125 -0.0205 315.688532163
0.0125 -0.0195 312.39174448
0.0125 -0.0185 311.531369878
0.0125 -0.0175 310.489195997
0.0125 -0.0165 310.204298988
0.0125 -0.0155 309.933780412
0.0125 -0.0145 309.526259508
0.0125 -0.0135 308.102585105
0.0125 -0.0125 304.858857762
0.0125 -0.0115 301.461132441
0.0125 -0.0105 298.438760868
0.0125 -0.0095 296.100472325
0.0125 -0.0085 295.005912274
0.0125 -0.0075 295.220173558
0.0125 -0.0065 295.977339109
0.0125 -0.0055 298.299075081
0.0125 -0.0045 302.672538118
0.0125 -0.0035 307.396608394
0.0125 -0.0025 311.895585142
0.0125 -0.0015 315.9478492
0.0125 -0.0005 317.971342429
0.0125 0.0005 319.616638536
0.0125 0.0015 321.237549857
0.0125 0.0025 323.373899757
0.0125 0.0035 327.105488868
0.0125 0.0045 330.57703713
0.0125 0.0055 334.866132864
0.0125 0.0065 340.132308062
0.0125 0.0075 344.962131262
0.0125 0.0085 348.868214287
0.0125 0.0095 352.565300769
0.0125 0.0105 356.430912111
0.0125 0.0115 357.504503157
0.0125 0.0125 358.16590586
0.0125 0.0135 359.312248502
0.0125 0.0145 358.478008773
0.0125 0.0155 357.530099592
0.0125 0.0165 356.808871082
0.0125 0.0175 355.506197335
0.0125 0.0185 354.203523589
0.0125 0.0195 353.309171056
0.0125 0.0205 352.327249752
0.0125 0.0215 351.374294538
0.0125 0.0225 351.049020921
0.0125 0.0235 351.515327874
0.0125 0.0245 352.098935315
0.0125 0.0255 354.607626147
0.0125 0.0265 357.741843933
0.0125 0.0275 361.364858102
0.0125 0.0285 366.430869592
0.0125 0.0295 371.920263567
0.0125 0.0305 374.67206557
0.0125 0.0315 377.100370862
0.0135 -0.0315 358.372039813
0.0135 -0.0305 357.327291941
0.0135 -0.0295 356.050395419
0.0135 -0.0285 353.920997202
0.0135 -0.0275 352.073701337
0.0135 -0.0265 347.048848891
0.0135 -0.0255 340.99568607
0.0135 -0.0245 333.46024538
0.0135 -0.0235 326.616546731
0.0135 -0.0225 319.669503507
0.0135 -0.0215 316.408071347
0.0135 -0.0205 313.625455618
0.0135 -0.0195 311.308742191
0.0135 -0.0185 310.598630503
0.0135 -0.0175 310.141884581
0.0135 -0.0165 309.933894808
0.0135 -0.0155 309.695539618
0.0135 -0.0145 308.570986605
0.0135 -0.0135 307.147312202
0.0135 -0.0125 305.08937838
0.0135 -0.0115 301.765123953
0.0135 -0.0105 298.456044693
0.0135 -0.0095 296.228649195
0.0135 -0.0085 295.575404611
0.0135 -0.0075 295.058192291
0.0135 -0.0065 296.547067171
0.0135 -0.0055 298.546301077
0.0135 -0.0045 301.861304086
0.0135 -0.0035 306.902230229
0.0135 -0.0025 311.943156371
0.0135 -0.0015 315.087025433
0.0135 -0.0005 316.803367634
0.0135 0.0005 318.493806876
0.0135 0.0015 320.046202548
0.0135 0.0025 321.564291408
0.0135 0.0035 324.584220999
0.0135 0.0045 327.682724235
0.0135 0.0055 330.767169251
0.0135 0.0065 335.777496414
0.0135 0.0075 340.305060267
0.0135 0.0085 344.719164046
0.0135 0.0095 348.495860079
0.0135 0.0105 352.423092844
0.0135 0.0115 355.512403699
0.0135 0.0125 356.441696625
0.0135 0.0135 357.686013825
0.0135 0.0145 358.234894156
0.0135 0.0155 357.441645101
0.0135 0.0165 356.788449908
0.0135 0.0175 355.835517649
0.0135 0.0185 354.717660639
0.0135 0.0195 353.878664944
0.0135 0.0205 352.983652066
0.0135 0.0215 352.237622759
0.0135 0.0225 351.76000932
0.0135 0.0235 352.226316273
0.0135 0.0245 352.699068241
0.0135 0.0255 354.931737105
0.0135 0.0265 357.994393399
0.0135 0.0275 361.62800777
0.0135 0.0285 366.69401926
0.0135 0.0295 371.655619876
0.0135 0.0305 374.24004996
0.0135 0.0315 376.675314748
0.0145 -0.0315 359.181723412
0.0145 -0.0305 358.026604145
0.0145 -0.0295 356.726895119
0.0145 -0.0285 354.410644234
0.0145 -0.0275 352.094393349
0.0145 -0.0265 345.529800349
0.0145 -0.0255 337.37331662
0.0145 -0.0245 329.831793398
0.0145 -0.0235 323.420000167
0.0145 -0.0225 316.789091371
0.0145 -0.0215 314.034768333
0.0145 -0.0205 312.033017037
0.0145 -0.0195 310.797223378
0.0145 -0.0185 310.275484332
0.0145 -0.0175 309.819542504
0.0145 -0.0165 309.61994042
0.0145 -0.0155 309.437684139
0.0145 -0.0145 308.381748929
0.0145 -0.0135 306.994942979
0.0145 -0.0125 304.956786571
0.0145 -0.0115 301.736855569
0.0145 -0.0105 298.430033786
0.0145 -0.0095 296.38998094
0.0145 -0.0085 295.74457439
0.0145 -0.0075 295.286702948
0.0145 -0.0065 296.55984493
0.0145 -0.0055 298.562795366
0.0145 -0.0045 301.327464392
0.0145 -0.0035 306.273219034
0.0145 -0.0025 311.318578931
0.0145 -0.0015 314.58532607
0.0145 -0.0005 316.271302036
0.0145 0.0005 317.676389917
0.0145 0.0015 318.978046259
0.0145 0.0025 320.490301346
0.0145 0.0035 321.912411651
0.0145 0.0045 324.989883095
0.0145 0.0055 328.067354539
0.0145 0.0065 331.155767092
0.0145 0.0075 335.682868067
0.0145 0.0085 340.209969042
0.0145 0.0095 343.808334458
0.0145 0.0105 347.732222377
0.0145 0.0115 351.668811778
0.0145 0.0125 353.905933201
0.0145 0.0135 355.133465474
0.0145 0.0145 356.747195654
0.0145 0.0155 357.138671025
0.0145 0.0165 356.589793235
0.0145 0.0175 356.040915445
0.0145 0.0185 355.315783941
0.0145 0.0195 354.507696153
0.0145 0.0205 353.737604104
0.0145 0.0215 353.06367602
0.0145 0.0225 352.470997719
0.0145 0.0235 352.958861908
0.0145 0.0245 353.451281237
0.0145 0.0255 355.585190895
0.0145 0.0265 358.387543615
0.0145 0.0275 361.863725176
0.0145 0.0285 366.720035495
0.0145 0.0295 371.576345815
0.0145 0.0305 374.104400664
0.0145 0.0315 376.336389511
0.0155 -0.0315 359.80213079
0.0155 -0.0305 358.702897488
0.0155 -0.0295 357.40339482
0.0155 -0.0285 354.476590413
0.0155 -0.0275 350.426002363
0.0155 -0.0265 342.605555157
0.0155 -0.0255 333.727129174
0.0155 -0.0245 326.203341416
0.0155 -0.0235 320.154266454
0.0155 -0.0225 314.954723204
0.0155 -0.0215 313.354322887
0.0155 -0.0205 311.382168399
0.0155 -0.0195 310.246320548
0.0155 -0.0185 309.791245478
0.0155 -0.0175 309.569252524
0.0155 -0.0165 309.446683398
0.0155 -0.0155 309.174451916
0.0155 -0.0145 308.643863935
0.0155 -0.0135 307.387024511
0.0155 -0.0125 304.541074256
0.0155 -0.0115 301.501649355
0.0155 -0.0105 298.646199319
0.0155 -0.0095 296.919803613
0.0155 -0.0085 295.638891701
0.0155 -0.0075 295.788270997
0.0155 -0.0065 296.308606377
0.0155 -0.0055 298.316147433
0.0155 -0.0045 301.622524427
0.0155 -0.0035 305.532565964
0.0155 -0.0025 310.099790086
0.0155 -0.0015 314.177614098
0.0155 -0.0005 316.416812736
0.0155 0.0005 317.259642192
0.0155 0.0015 318.066538014
0.0155 0.0025 319.520562917
0.0155 0.0035 320.5681391
0.0155 0.0045 322.61549474
0.0155 0.0055 325.276548118
0.0155 0.0065 327.231406457
0.0155 0.0075 331.122482903
0.0155 0.0085 334.844198921
0.0155 0.0095 337.956449307
0.0155 0.0105 341.815224275
0.0155 0.0115 345.844456657
0.0155 0.0125 349.791782888
0.0155 0.0135 351.019315162
0.0155 0.0145 354.09104089
0.0155 0.0155 356.172063669
0.0155 0.0165 355.658607192
0.0155 0.0175 355.727726815
0.0155 0.0185 355.600738957
0.0155 0.0195 355.193406479
0.0155 0.0205 354.434970834
0.0155 0.0215 353.847177835
0.0155 0.0225 353.444695781
0.0155 0.0235 353.773156894
0.0155 0.0245 354.203494233
0.0155 0.0255 356.286845177
0.0155 0.0265 358.966257414
0.0155 0.0275 362.158175085
0.0155 0.0285 366.711134414
0.0155 0.0295 371.497071754
0.0155 0.0305 374.018250375
0.0155 0.0315 376.202259759
0.0165 -0.0315 360.390373128
0.0165 -0.0305 359.291139827
0.0165 -0.0295 357.24590138
0.0165 -0.0285 352.288056846
0.0165 -0.0275 348.237468796
0.0165 -0.0265 340.443687729
0.0165 -0.0255 331.298812284
0.0165 -0.0245 323.760115081
0.0165 -0.0235 318.814547447
0.0165 -0.0225 313.615004197
0.0165 -0.0215 312.008907542
0.0165 -0.0205 310.468126043
0.0165 -0.0195 309.86548451
0.0165 -0.0185 309.608789879
0.0165 -0.0175 309.397482164
0.0165 -0.0165 309.273996417
0.0165 -0.0155 308.957604446
0.0165 -0.0145 308.44647727
0.0165 -0.0135 307.293734931