% Model:              SIMBench260525.mph
% Version:            COMSOL 6.2.0.339
% Date:               May 27 2026, 18:23
% Dimension:          2
% Nodes:              4096
% Expressions:        1
% Description:        温度
% Length unit:        m
% x                       y                        T (K)
5.0E-4                    -0.0315                  354.86865452597544
5.0E-4                    -0.0305                  353.1511567394576
5.0E-4                    -0.0295                  351.4258985826014
5.0E-4                    -0.0285                  348.70204160323163
5.0E-4                    -0.0275                  346.1309722575222
5.0E-4                    -0.0265                  343.55990291181286
5.0E-4                    -0.0255                  341.8443358861992
5.0E-4                    -0.0245                  340.3299238882845
5.0E-4                    -0.0235                  338.81551189036975
5.0E-4                    -0.0225                  338.11435795182973
5.0E-4                    -0.0215                  337.28300452058545
5.0E-4                    -0.0205                  336.4516510893411
5.0E-4                    -0.0195                  335.9169648133797
5.0E-4                    -0.0185                  335.22618298908776
5.0E-4                    -0.0175                  334.5354011647958
5.0E-4                    -0.0165                  333.49265018548857
5.0E-4                    -0.0155                  332.7494086103933
5.0E-4                    -0.0145                  332.00616703529795
5.0E-4                    -0.0135                  329.203499862547
5.0E-4                    -0.0125                  324.34643723703584
5.0E-4                    -0.0115                  319.4893746115246
5.0E-4                    -0.0105                  314.9140564332904
5.0E-4                    -0.0095                  309.14815182158287
5.0E-4                    -0.0085                  303.3822472098754
5.0E-4                    -0.0075                  298.5995442726691
5.0E-4                    -0.0065                  296.14880395271666
5.0E-4                    -0.0055                  293.8502875841709
5.0E-4                    -0.0045                  293.22734664816284
5.0E-4                    -0.0035                  293.1664729743835
5.0E-4                    -0.0025                  293.1390205113266
5.0E-4                    -0.0015                  293.1459067365112
5.0E-4                    -5.0E-4                  293.1522050095101
5.0E-4                    5.0E-4                   293.1530017980673
5.0E-4                    0.0015                   293.14908601950214
5.0E-4                    0.0025                   293.1435029119297
5.0E-4                    0.0035                   293.1421279395018
5.0E-4                    0.0045                   293.15432747890196
5.0E-4                    0.0055                   293.36405626858334
5.0E-4                    0.0065                   294.2544137523978
5.0E-4                    0.0075                   295.21055989035244
5.0E-4                    0.0085                   297.2761928437592
5.0E-4                    0.0095                   298.7431104812344
5.0E-4                    0.0105                   300.21002811870954
5.0E-4                    0.0115                   303.6801384735947
5.0E-4                    0.0125                   309.257220513441
5.0E-4                    0.0135                   314.83430255328716
5.0E-4                    0.0145                   317.67410115228995
5.0E-4                    0.0155                   320.533448366839
5.0E-4                    0.0165                   323.3927955813881
5.0E-4                    0.0175                   325.42790891614743
5.0E-4                    0.0185                   326.24688540503917
5.0E-4                    0.0195                   327.06586189393096
5.0E-4                    0.0205                   328.1096114121965
5.0E-4                    0.0215                   329.0185564572396
5.0E-4                    0.0225                   329.92750150228267
5.0E-4                    0.0235                   330.92444592286233
5.0E-4                    0.0245                   332.228525989828
5.0E-4                    0.0255                   333.5326060567936
5.0E-4                    0.0265                   335.2382860728021
5.0E-4                    0.0275                   337.8644900453566
5.0E-4                    0.0285                   340.4906940179111
5.0E-4                    0.0295                   343.1799568822482
5.0E-4                    0.0305                   345.0292393550052
5.0E-4                    0.0315                   346.8785218277622
0.0015                    -0.0315                  354.25172382389997
0.0015                    -0.0305                  352.74671306016864
0.0015                    -0.0295                  350.64736051239913
0.0015                    -0.0285                  347.4850939916805
0.0015                    -0.0275                  344.59842323307413
0.0015                    -0.0265                  342.56919257134183
0.0015                    -0.0255                  340.9932621738426
0.0015                    -0.0245                  339.45172215623313
0.0015                    -0.0235                  338.4906277215805
0.0015                    -0.0225                  338.0319913606605
0.0015                    -0.0215                  337.34826034061336
0.0015                    -0.0205                  336.72880059204067
0.0015                    -0.0195                  336.3205004611122
0.0015                    -0.0185                  335.744201512729
0.0015                    -0.0175                  334.7972679095662
0.0015                    -0.0165                  333.5623896701735
0.0015                    -0.0155                  332.6159485748072
0.0015                    -0.0145                  330.93346706297876
0.0015                    -0.0135                  328.1924275285503
0.0015                    -0.0125                  324.2079470565543
0.0015                    -0.0115                  319.70477708836114
0.0015                    -0.0105                  315.5881699541799
0.0015                    -0.0095                  310.48199252185145
0.0015                    -0.0085                  304.88480839532286
0.0015                    -0.0075                  299.4547265753512
0.0015                    -0.0065                  296.13388371023245
0.0015                    -0.0055                  294.5121761806297
0.0015                    -0.0045                  293.18936199942556
0.0015                    -0.0035                  293.13240181041203
0.0015                    -0.0025                  293.1437907471838
0.0015                    -0.0015                  293.153549764664
0.0015                    -5.0E-4                  293.15769024237426
0.0015                    5.0E-4                   293.1582490687132
0.0015                    0.0015                   293.15594013033547
0.0015                    0.0025                   293.1424850004034
0.0015                    0.0035                   293.124957128803
0.0015                    0.0045                   293.1437240973893
0.0015                    0.0055                   293.5946236374201
0.0015                    0.0065                   294.1849882803127
0.0015                    0.0075                   295.684615824369
0.0015                    0.0085                   298.3726900634026
0.0015                    0.0095                   300.381887140533
0.0015                    0.0105                   302.7173445074931
0.0015                    0.0115                   306.1436408592591
0.0015                    0.0125                   310.79221820518853
0.0015                    0.0135                   314.7658909958983
0.0015                    0.0145                   316.80244861247076
0.0015                    0.0155                   319.31161400219673
0.0015                    0.0165                   321.8607492498058
0.0015                    0.0175                   324.0318466609955
0.0015                    0.0185                   325.41695400647467
0.0015                    0.0195                   326.3868839955299
0.0015                    0.0205                   327.54127579780135
0.0015                    0.0215                   328.5482025612713
0.0015                    0.0225                   329.4605222958589
0.0015                    0.0235                   330.37671985614395
0.0015                    0.0245                   331.5390358230103
0.0015                    0.0255                   332.93330653186996
0.0015                    0.0265                   334.38969465793014
0.0015                    0.0275                   336.6560758710357
0.0015                    0.0285                   339.45416383329166
0.0015                    0.0295                   342.52492558267164
0.0015                    0.0305                   344.72386446404704
0.0015                    0.0315                   346.33104765968307
0.0025                    -0.0315                  353.6347931218245
0.0025                    -0.0305                  351.8726145852557
0.0025                    -0.0295                  349.56628271375104
0.0025                    -0.0285                  346.395190976279
0.0025                    -0.0275                  343.5666002368123
0.0025                    -0.0265                  341.88931455432976
0.0025                    -0.0255                  340.2902038334305
0.0025                    -0.0245                  339.0663163367941
0.0025                    -0.0235                  338.60212093250874
0.0025                    -0.0225                  338.1024166508835
0.0025                    -0.0215                  337.75020337627285
0.0025                    -0.0205                  337.3236907931396
0.0025                    -0.0195                  336.8971782100065
0.0025                    -0.0185                  336.35455746176297
0.0025                    -0.0175                  335.1226478455052
0.0025                    -0.0165                  333.89254010296906
0.0025                    -0.0155                  332.3131630273415
0.0025                    -0.0145                  329.53949323767523
0.0025                    -0.0135                  326.79925734685327
0.0025                    -0.0125                  323.9629402274449
0.0025                    -0.0115                  319.8509118043512
0.0025                    -0.0105                  315.72621077056317
0.0025                    -0.0095                  311.6780530581593
0.0025                    -0.0085                  306.2409789411241
0.0025                    -0.0075                  300.803904824089
0.0025                    -0.0065                  296.3837600068321
0.0025                    -0.0055                  295.0452969715606
0.0025                    -0.0045                  293.7068339362891
0.0025                    -0.0035                  293.13484233248977
0.0025                    -0.0025                  293.14615989716606
0.0025                    -0.0015                  293.1574774618424
0.0025                    -5.0E-4                  293.1627139550493
0.0025                    5.0E-4                   293.163281211229
0.0025                    0.0015                   293.1591743207593
0.0025                    0.0025                   293.1416435542311
0.0025                    0.0035                   293.124112787703
0.0025                    0.0045                   293.3157784863036
0.0025                    0.0055                   293.7694676033691
0.0025                    0.0065                   294.22315672043464
0.0025                    0.0075                   296.39236750612974
0.0025                    0.0085                   299.0958222547375
0.0025                    0.0095                   301.8212936499292
0.0025                    0.0105                   305.2223019469532
0.0025                    0.0115                   308.65234654664164
0.0025                    0.0125                   311.8803045418993
0.0025                    0.0135                   313.87453715018427
0.0025                    0.0145                   315.91681003008
0.0025                    0.0155                   317.98431411021136
0.0025                    0.0165                   320.1638303068678
0.0025                    0.0175                   322.33621083571643
0.0025                    0.0185                   324.61667973115675
0.0025                    0.0195                   325.8410926723543
0.0025                    0.0205                   326.9940188175152
0.0025                    0.0215                   328.1914184672543
0.0025                    0.0225                   329.1583617003788
0.0025                    0.0235                   330.12530493350334
0.0025                    0.0245                   331.0422769591196
0.0025                    0.0255                   332.4072439989544
0.0025                    0.0265                   333.81110093873986
0.0025                    0.0275                   335.4476616967148
0.0025                    0.0285                   338.5419842382875
0.0025                    0.0295                   341.6869767861209
0.0025                    0.0305                   344.11033902033876
0.0025                    0.0315                   345.78086946032977
0.0035                    -0.0315                  352.64143253556637
0.0035                    -0.0305                  350.515906407062
0.0035                    -0.0295                  348.5201214828117
0.0035                    -0.0285                  345.5154558095239
0.0035                    -0.0275                  343.5165576024968
0.0035                    -0.0265                  341.59658744832365
0.0035                    -0.0255                  339.9974767274245
0.0035                    -0.0245                  340.0348348444232
0.0035                    -0.0235                  339.93316843131197
0.0035                    -0.0225                  339.43346414968676
0.0035                    -0.0215                  339.6848348419173
0.0035                    -0.0205                  339.761732432766
0.0035                    -0.0195                  339.33521984963284
0.0035                    -0.0185                  338.1585704411741
0.0035                    -0.0175                  336.81262551213035
0.0035                    -0.0165                  335.5825177695941
0.0035                    -0.0155                  332.07435984708655
0.0035                    -0.0145                  328.39144817874853
0.0035                    -0.0135                  325.65121228792657
0.0035                    -0.0125                  322.3339972442885
0.0035                    -0.0115                  318.6076439535326
0.0035                    -0.0105                  314.48294291974463
0.0035                    -0.0095                  310.7768432169123
0.0035                    -0.0085                  306.35379632415686
0.0035                    -0.0075                  300.9167222071217
0.0035                    -0.0065                  297.12985451387476
0.0035                    -0.0055                  294.8793205797034
0.0035                    -0.0045                  293.73526319404994
0.0035                    -0.0035                  293.1880708188547
0.0035                    -0.0025                  293.1369604869126
0.0035                    -0.0015                  293.1536690703887
0.0035                    -5.0E-4                  293.171085513743
0.0035                    5.0E-4                   293.17165276992273
0.0035                    0.0015                   293.15817569542844
0.0035                    0.0025                   293.14160706549916
0.0035                    0.0035                   293.14869072446254
0.0035                    0.0045                   293.27027354310593
0.0035                    0.0055                   293.6585992057678
0.0035                    0.0065                   294.56235555700744
0.0035                    0.0075                   296.1243984270491
0.0035                    0.0085                   298.82785317565674
0.0035                    0.0095                   301.74542334777334
0.0035                    0.0105                   304.8976393468544
0.0035                    0.0115                   308.32768394654283
0.0035                    0.0125                   310.1007109505227
0.0035                    0.0135                   311.528938628746
0.0035                    0.0145                   313.5712115086418
0.0035                    0.0155                   315.827962760717
0.0035                    0.0165                   318.1107965304443
0.0035                    0.0175                   320.283177059293
0.0035                    0.0185                   323.3828273920284
0.0035                    0.0195                   326.01952903267016
0.0035                    0.0205                   327.172455177831
0.0035                    0.0215                   328.64305322392204
0.0035                    0.0225                   329.96532184394545
0.0035                    0.0235                   330.93226507707
0.0035                    0.0245                   331.50999218859783
0.0035                    0.0255                   332.6225826254001
0.0035                    0.0265                   333.98129869833735
0.0035                    0.0275                   335.3770907017744
0.0035                    0.0285                   337.9302975396974
0.0035                    0.0295                   341.03585614970837
0.0035                    0.0305                   343.315093904145
0.0035                    0.0315                   345.1635445500664
0.0045                    -0.0315                  352.07790485511333
0.0045                    -0.0305                  349.75692166109917
0.0045                    -0.0295                  347.47478832368694
0.0045                    -0.0285                  345.4432348248208
0.0045                    -0.0275                  343.4488617439091
0.0045                    -0.0265                  341.4544886629974
0.0045                    -0.0255                  340.86279202421395
0.0045                    -0.0245                  341.0033533520523
0.0045                    -0.0235                  341.1439146798905
0.0045                    -0.0225                  341.2108714137019
0.0045                    -0.0215                  341.61542750849094
0.0045                    -0.0205                  342.0199836032799
0.0045                    -0.0195                  341.37895892124766
0.0045                    -0.0185                  339.96258342058525
0.0045                    -0.0175                  338.5462079199228
0.0045                    -0.0165                  336.0624501778363
0.0045                    -0.0155                  331.83555666683174
0.0045                    -0.0145                  327.60866315582723
0.0045                    -0.0135                  324.188012834659
0.0045                    -0.0125                  320.7050542611322
0.0045                    -0.0115                  317.2220956876054
0.0045                    -0.0105                  313.4760979815385
0.0045                    -0.0095                  309.86590695725863
0.0045                    -0.0085                  306.2557159329788
0.0045                    -0.0075                  302.0550753048483
0.0045                    -0.0065                  298.3013161841798
0.0045                    -0.0055                  294.71334418784613
0.0045                    -0.0045                  294.04303231832625
0.0045                    -0.0035                  293.49583994313105
0.0045                    -0.0025                  293.12910416165494
0.0045                    -0.0015                  293.15024730793124
0.0045                    -5.0E-4                  293.1713904542074
0.0045                    5.0E-4                   293.1726947474447
0.0045                    0.0015                   293.1570501222944
0.0045                    0.0025                   293.141405497144
0.0045                    0.0035                   293.2305303050856
0.0045                    0.0045                   293.352113123729
0.0045                    0.0055                   293.5811322046387
0.0045                    0.0065                   295.03929851273995
0.0045                    0.0075                   296.4974648208412
0.0045                    0.0085                   298.63715126029376
0.0045                    0.0095                   301.6695530456175
0.0045                    0.0105                   304.70195483094125
0.0045                    0.0115                   307.1966752180899
0.0045                    0.0125                   308.3211173591461
0.0045                    0.0135                   309.4455595002024
0.0045                    0.0145                   311.3313496431488
0.0045                    0.0155                   313.67161141122267
0.0045                    0.0165                   316.0118731792967
0.0045                    0.0175                   318.6752615871238
0.0045                    0.0185                   322.14897505290014
0.0045                    0.0195                   325.62268851867645
0.0045                    0.0205                   327.5060248095598
0.0045                    0.0215                   329.09263968769426
0.0045                    0.0225                   330.6792545658287
0.0045                    0.0235                   331.5015269967123
0.0045                    0.0245                   332.05302580689056
0.0045                    0.0255                   332.8131443325722
0.0045                    0.0265                   334.0691090733448
0.0045                    0.0275                   335.52300469667597
0.0045                    0.0285                   338.0762115345989
0.0045                    0.0295                   340.62941837252185
0.0045                    0.0305                   342.8254900756058
0.0045                    0.0315                   344.9131809838202
0.0055                    -0.0315                  351.51437717466035
0.0055                    -0.0305                  349.5034662927417
0.0055                    -0.0295                  347.5178734085181
0.0055                    -0.0285                  345.22721756848375
0.0055                    -0.0275                  343.1965657552948
0.0055                    -0.0265                  341.8529956874158
0.0055                    -0.0255                  342.0329903984891
0.0055                    -0.0245                  342.15182301202896
0.0055                    -0.0235                  342.3981896764834
0.0055                    -0.0225                  343.53591284702384
0.0055                    -0.0215                  343.9318673240773
0.0055                    -0.0205                  344.3272620782629
0.0055                    -0.0195                  343.4438023047343
0.0055                    -0.0185                  342.0298741281598
0.0055                    -0.0175                  340.46953733104186
0.0055                    -0.0165                  335.35703735725366
0.0055                    -0.0155                  331.1244350429845
0.0055                    -0.0145                  326.84183468821226
0.0055                    -0.0135                  322.0829139111851
0.0055                    -0.0125                  318.598561338618
0.0055                    -0.0115                  315.3304697742989
0.0055                    -0.0105                  313.5669778430188
0.0055                    -0.0095                  309.9680359088092
0.0055                    -0.0085                  306.22410055138937
0.0055                    -0.0075                  302.1275877150649
0.0055                    -0.0065                  298.35517024703785
0.0055                    -0.0055                  295.3455360926674
0.0055                    -0.0045                  294.0375946604289
0.0055                    -0.0035                  293.48544630864814
0.0055                    -0.0025                  293.18598477656116
0.0055                    -0.0015                  293.1502492244358
0.0055                    -5.0E-4                  293.17095496881336
0.0055                    5.0E-4                   293.1783197288087
0.0055                    0.0015                   293.16269942078316
0.0055                    0.0025                   293.1578080274495
0.0055                    0.0035                   293.2099913694926
0.0055                    0.0045                   293.3331801240294
0.0055                    0.0055                   293.7189561857264
0.0055                    0.0065                   294.86225412270005
0.0055                    0.0075                   296.3345807563164
0.0055                    0.0085                   298.58584140620684
0.0055                    0.0095                   301.5516520427313
0.0055                    0.0105                   304.58497186674754
0.0055                    0.0115                   305.80566910566984
0.0055                    0.0125                   306.92517205939305
0.0055                    0.0135                   308.0446750131164
0.0055                    0.0145                   309.00926325730234
0.0055                    0.0155                   311.35122104888785
0.0055                    0.0165                   313.69317884047337
0.0055                    0.0175                   316.5426148917355
0.0055                    0.0185                   320.0210318441806
0.0055                    0.0195                   323.49944879662564
0.0055                    0.0205                   327.819321864622
0.0055                    0.0215                   329.3997122864869
0.0055                    0.0225                   331.04077522180296
0.0055                    0.0235                   332.77057090939877
0.0055                    0.0245                   333.3907083145597
0.0055                    0.0255                   333.93240462864895
0.0055                    0.0265                   334.40573321865344
0.0055                    0.0275                   335.66891869157746
0.0055                    0.0285                   338.2221155277681
0.0055                    0.0295                   340.7753077730854
0.0055                    0.0305                   342.796411501884
0.0055                    0.0315                   344.66298583122517
0.0065                    -0.0315                  351.52103753528667
0.0065                    -0.0305                  349.54655137757277
0.0065                    -0.0295                  347.5427643396754
0.0065                    -0.0285                  345.2443992953406
0.0065                    -0.0275                  342.9460342510057
0.0065                    -0.0265                  342.99177592422245
0.0065                    -0.0255                  343.1793315185363
0.0065                    -0.0245                  343.3240814221863
0.0065                    -0.0235                  344.27940862653975
0.0065                    -0.0225                  345.58695502363383
0.0065                    -0.0215                  346.4025721950516
0.0065                    -0.0205                  346.12003987325886
0.0065                    -0.0195                  345.35726705730696
0.0065                    -0.0185                  344.20869372071843
0.0065                    -0.0175                  340.22892066599843
0.0065                    -0.0165                  334.97850920158044
0.0065                    -0.0155                  330.23468405893675
0.0065                    -0.0145                  325.47469752868335
0.0065                    -0.0135                  320.49754925527054
0.0065                    -0.0125                  316.3254694842462
0.0065                    -0.0115                  314.4334745264314
0.0065                    -0.0105                  313.10181912540577
0.0065                    -0.0095                  310.3935675319508
0.0065                    -0.0085                  306.256506367607
0.0065                    -0.0075                  302.0166949967528
0.0065                    -0.0065                  298.1732389881186
0.0065                    -0.0055                  296.1366563496415
0.0065                    -0.0045                  294.1000737111643
0.0065                    -0.0035                  293.51710203927587
0.0065                    -0.0025                  293.3153490316775
0.0065                    -0.0015                  293.1508456221917
0.0065                    -5.0E-4                  293.16401480072494
0.0065                    5.0E-4                   293.1723006079009
0.0065                    0.0015                   293.16935825245326
0.0065                    0.0025                   293.1822357789901
0.0065                    0.0035                   293.19655713699274
0.0065                    0.0045                   293.40038697738623
0.0065                    0.0055                   293.9329159463251
0.0065                    0.0065                   294.53900115048856
0.0065                    0.0075                   296.4384310929371
0.0065                    0.0085                   298.83181165527856
0.0065                    0.0095                   301.42087704487733
0.0065                    0.0105                   303.3669421554391
0.0065                    0.0115                   304.52988554294967