% Model:              SIMBench260525.mph
% Version:            COMSOL 6.2.0.339
% Date:               May 27 2026, 17:46
% Dimension:          2
% Nodes:              4096
% Expressions:        1
% Description:        温度
% Length unit:        m
% x                       y                        T (K)
5.0E-4                    -0.0315                  364.51403648686266
5.0E-4                    -0.0305                  362.6187950509418
5.0E-4                    -0.0295                  360.70843949565307
5.0E-4                    -0.0285                  357.2878377992844
5.0E-4                    -0.0275                  353.55877102576267
5.0E-4                    -0.0265                  349.8297042522409
5.0E-4                    -0.0255                  346.35127965552385
5.0E-4                    -0.0245                  343.4915898310021
5.0E-4                    -0.0235                  340.63190000648035
5.0E-4                    -0.0225                  338.8950180438085
5.0E-4                    -0.0215                  336.98634862087766
5.0E-4                    -0.0205                  335.07767919794696
5.0E-4                    -0.0195                  334.12142954572124
5.0E-4                    -0.0185                  332.53208016874487
5.0E-4                    -0.0175                  330.94273079176844
5.0E-4                    -0.0165                  330.2063300516725
5.0E-4                    -0.0155                  328.55065591380645
5.0E-4                    -0.0145                  326.8949817759404
5.0E-4                    -0.0135                  325.5637252627507
5.0E-4                    -0.0125                  322.6373423448798
5.0E-4                    -0.0115                  319.71095942700885
5.0E-4                    -0.0105                  316.29012530363974
5.0E-4                    -0.0095                  309.59536130134575
5.0E-4                    -0.0085                  302.90059729905175
5.0E-4                    -0.0075                  296.92637879673646
5.0E-4                    -0.0065                  296.2435877871014
5.0E-4                    -0.0055                  295.5607967774663
5.0E-4                    -0.0045                  294.25984356814524
5.0E-4                    -0.0035                  294.2056465331531
5.0E-4                    -0.0025                  294.1514494981608
5.0E-4                    -0.0015                  293.47760135121905
5.0E-4                    -5.0E-4                  293.2875148512492
5.0E-4                    5.0E-4                   293.2928837342151
5.0E-4                    0.0015                   293.49336459206523
5.0E-4                    0.0025                   294.18467005329455
5.0E-4                    0.0035                   294.162731670075
5.0E-4                    0.0045                   294.14079328685534
5.0E-4                    0.0055                   295.16999075355204
5.0E-4                    0.0065                   295.9060856711091
5.0E-4                    0.0075                   296.64218058866606
5.0E-4                    0.0085                   302.76150119226617
5.0E-4                    0.0095                   309.6610720495411
5.0E-4                    0.0105                   316.560642906816
5.0E-4                    0.0115                   320.3295308501315
5.0E-4                    0.0125                   323.6807814098477
5.0E-4                    0.0135                   327.0320319695639
5.0E-4                    0.0145                   328.572806100991
5.0E-4                    0.0155                   330.04415619475185
5.0E-4                    0.0165                   331.5155062885128
5.0E-4                    0.0175                   332.24269349398935
5.0E-4                    0.0185                   333.48835635904993
5.0E-4                    0.0195                   334.7340192241105
5.0E-4                    0.0205                   335.416366732854
5.0E-4                    0.0215                   336.9016897559759
5.0E-4                    0.0225                   338.38701277909774
5.0E-4                    0.0235                   339.56430495327936
5.0E-4                    0.0245                   341.7202438254411
5.0E-4                    0.0255                   343.8761826976029
5.0E-4                    0.0265                   346.30194063437034
5.0E-4                    0.0275                   349.44787309745016
5.0E-4                    0.0285                   352.59380556053014
5.0E-4                    0.0295                   355.6972243200712
5.0E-4                    0.0305                   357.50415935654587
5.0E-4                    0.0315                   359.3110943930205
0.0015                    -0.0315                  363.8538178974992
0.0015                    -0.0305                  362.37419347437185
0.0015                    -0.0295                  359.9453211269281
0.0015                    -0.0285                  356.0011658457859
0.0015                    -0.0275                  352.1577307433697
0.0015                    -0.0265                  348.5006807082027
0.0015                    -0.0255                  344.90310315096394
0.0015                    -0.0245                  341.7224569532188
0.0015                    -0.0235                  339.646779741048
0.0015                    -0.0225                  338.23656843699274
0.0015                    -0.0215                  336.51181106520295
0.0015                    -0.0205                  335.27523971406015
0.0015                    -0.0195                  334.7900922168074
0.0015                    -0.0185                  333.64306210852595
0.0015                    -0.0175                  332.6947299529941
0.0015                    -0.0165                  332.48860695820997
0.0015                    -0.0155                  331.43385988823803
0.0015                    -0.0145                  330.20882530030156
0.0015                    -0.0135                  329.4715103432037
0.0015                    -0.0125                  327.4400903486692
0.0015                    -0.0115                  324.7142629386799
0.0015                    -0.0105                  322.2052413238912
0.0015                    -0.0095                  317.1775879785618
0.0015                    -0.0085                  310.01023271420615
0.0015                    -0.0075                  302.360350941704
0.0015                    -0.0065                  299.254932471616
0.0015                    -0.0055                  297.8047539182743
0.0015                    -0.0045                  295.774831592591
0.0015                    -0.0035                  295.35207284365276
0.0015                    -0.0025                  294.54964604288494
0.0015                    -0.0015                  293.73548497950014
0.0015                    -5.0E-4                  293.3305284028274
0.0015                    5.0E-4                   293.3362406938446
0.0015                    0.0015                   293.63456209350306
0.0015                    0.0025                   294.58895317897463
0.0015                    0.0035                   295.41015707753274
0.0015                    0.0045                   295.68375177252926
0.0015                    0.0055                   297.3208860336416
0.0015                    0.0065                   298.497749477623
0.0015                    0.0075                   301.83697271997937
0.0015                    0.0085                   309.58129913714424
0.0015                    0.0095                   316.8557112884233
0.0015                    0.0105                   322.0582860582457
0.0015                    0.0115                   324.9918782984481
0.0015                    0.0125                   328.1623751183699
0.0015                    0.0135                   330.4884958882411
0.0015                    0.0145                   331.5062122736819
0.0015                    0.0155                   332.78469751265095
0.0015                    0.0165                   333.757112963023
0.0015                    0.0175                   334.1043770393648
0.0015                    0.0185                   334.96625912908047
0.0015                    0.0195                   335.7701605547559
0.0015                    0.0205                   336.024058200497
0.0015                    0.0215                   337.013301655311
0.0015                    0.0225                   338.1388391118709
0.0015                    0.0235                   338.89912219016554
0.0015                    0.0245                   340.54517817785575
0.0015                    0.0255                   342.740406814599
0.0015                    0.0265                   344.961091376185
0.0015                    0.0275                   347.8224519881578
0.0015                    0.0285                   351.1599247892012
0.0015                    0.0295                   354.8013244473996
0.0015                    0.0305                   357.13270826678104
0.0015                    0.0315                   358.6254734229175
0.0025                    -0.0315                  363.19359930813573
0.0025                    -0.0305                  361.3674294511251
0.0025                    -0.0295                  358.7318128532071
0.0025                    -0.0285                  354.77973818862563
0.0025                    -0.0275                  350.8102021598114
0.0025                    -0.0265                  347.1388387193817
0.0025                    -0.0255                  343.54812528709317
0.0025                    -0.0245                  340.6043348405222
0.0025                    -0.0235                  339.13538660765823
0.0025                    -0.0225                  337.6388785239332
0.0025                    -0.0215                  336.35026033664604
0.0025                    -0.0205                  335.8899019835902
0.0025                    -0.0195                  335.4295436305344
0.0025                    -0.0185                  335.13173710709043
0.0025                    -0.0175                  334.9506086739891
0.0025                    -0.0165                  334.7670090902092
0.0025                    -0.0155                  334.61824020304397
0.0025                    -0.0145                  333.9062028723033
0.0025                    -0.0135                  333.1737401498377
0.0025                    -0.0125                  332.2704643099847
0.0025                    -0.0115                  329.7681801431288
0.0025                    -0.0105                  327.25887514919754
0.0025                    -0.0095                  324.56155879503325
0.0025                    -0.0085                  316.9077070963866
0.0025                    -0.0075                  309.25385539774
0.0025                    -0.0065                  302.38725775477815
0.0025                    -0.0055                  300.3477938938421
0.0025                    -0.0045                  298.3083300329059
0.0025                    -0.0035                  295.9586058414976
0.0025                    -0.0025                  294.8529199673625
0.0025                    -0.0015                  293.9980386492039
0.0025                    -5.0E-4                  293.5392347480972
0.0025                    5.0E-4                   293.46341502713193
0.0025                    0.0015                   293.7777887490762
0.0025                    0.0025                   294.82689826868915
0.0025                    0.0035                   296.1471162751436
0.0025                    0.0045                   297.7320234781013
0.0025                    0.0055                   299.42238983908715
0.0025                    0.0065                   301.1127562000729
0.0025                    0.0075                   308.39764245525015
0.0025                    0.0085                   316.1361536779408
0.0025                    0.0095                   323.6661123009021
0.0025                    0.0105                   326.601492924334
0.0025                    0.0115                   329.5346698447421
0.0025                    0.0125                   332.4542935446685
0.0025                    0.0135                   333.5627933386212
0.0025                    0.0145                   334.5797593358857
0.0025                    0.0155                   335.6001681274826
0.0025                    0.0165                   335.9801461469773
0.0025                    0.0175                   336.330528479909
0.0025                    0.0185                   336.618645645383
0.0025                    0.0195                   336.86512356095085
0.0025                    0.0205                   337.1444381713626
0.0025                    0.0215                   337.25418713672116
0.0025                    0.0225                   338.0661501316353
0.0025                    0.0235                   338.88182348104965
0.0025                    0.0245                   339.62752020375615
0.0025                    0.0255                   341.7040796751626
0.0025                    0.0265                   343.833800801462
0.0025                    0.0275                   346.1970308788654
0.0025                    0.0285                   349.86227581965863
0.0025                    0.0295                   353.5814982808353
0.0025                    0.0305                   356.29977217227247
0.0025                    0.0315                   357.93618196074976
0.0035                    -0.0315                  361.9503302455233
0.0035                    -0.0305                  359.7116378523319
0.0035                    -0.0295                  357.54968699555343
0.0035                    -0.0285                  353.58913099490303
0.0035                    -0.0275                  349.5781206081385
0.0035                    -0.0265                  345.65227041768486
0.0035                    -0.0255                  342.06155698539635
0.0035                    -0.0245                  341.0469692352053
0.0035                    -0.0235                  339.92321737970195
0.0035                    -0.0225                  338.42670929597705
0.0035                    -0.0215                  338.637246443906
0.0035                    -0.0205                  338.8421243318553
0.0035                    -0.0195                  338.3817659787994
0.0035                    -0.0185                  339.0630629310126
0.0035                    -0.0175                  339.6622932445214
0.0035                    -0.0165                  339.47869366074144
0.0035                    -0.0155                  339.52559922997585
0.0035                    -0.0145                  339.3309851792455
0.0035                    -0.0135                  338.5985224567799
0.0035                    -0.0125                  336.86433768447665
0.0035                    -0.0115                  334.6631529222502
0.0035                    -0.0105                  332.15384792831895
0.0035                    -0.0095                  328.799028871609
0.0035                    -0.0085                  323.47378145712065
0.0035                    -0.0075                  315.81992975847396
0.0035                    -0.0065                  309.52854012663846
0.0035                    -0.0055                  305.6887831114252
0.0035                    -0.0045                  303.06075064236904
0.0035                    -0.0035                  297.18014008776777
0.0035                    -0.0025                  295.5602887446905
0.0035                    -0.0015                  294.33346419443285
0.0035                    -5.0E-4                  293.5959505775856
0.0035                    5.0E-4                   293.5523434092314
0.0035                    0.0015                   294.0438792517829
0.0035                    0.0025                   295.0339948703526
0.0035                    0.0035                   296.90965780709894
0.0035                    0.0045                   301.7224131729651
0.0035                    0.0055                   303.4127795339508
0.0035                    0.0065                   307.3345626604311
0.0035                    0.0075                   313.86705642996617
0.0035                    0.0085                   321.6055676526567
0.0035                    0.0095                   326.3217191888723
0.0035                    0.0105                   329.27613815111766
0.0035                    0.0115                   332.2093150715257
0.0035                    0.0125                   334.9995596104663
0.0035                    0.0135                   337.15161156914036
0.0035                    0.0145                   338.16857756640485
0.0035                    0.0155                   339.2186243152704
0.0035                    0.0165                   340.03524754152306
0.0035                    0.0175                   340.3856298744547
0.0035                    0.0185                   340.1556962772698
0.0035                    0.0195                   339.94990313810933
0.0035                    0.0205                   340.2292177485211
0.0035                    0.0215                   339.6586911895923
0.0035                    0.0225                   339.5191266856067
0.0035                    0.0235                   340.33480003502103
0.0035                    0.0245                   340.3429024286135
0.0035                    0.0255                   341.7752535870261
0.0035                    0.0265                   343.82096045344247
0.0035                    0.0275                   345.545671064342
0.0035                    0.0285                   348.8641725464301
0.0035                    0.0295                   352.55842878525846
0.0035                    0.0305                   355.0780702321803
0.0035                    0.0315                   356.93854807938084
0.0045                    -0.0315                  361.1172922070629
0.0045                    -0.0305                  358.67580800455215
0.0045                    -0.0295                  356.25594379370915
0.0045                    -0.0285                  352.3953094542002
0.0045                    -0.0275                  348.375796692579
0.0045                    -0.0265                  344.3562839309577
0.0045                    -0.0255                  342.37367067708743
0.0045                    -0.0245                  341.4896036298886
0.0045                    -0.0235                  340.6055365826897
0.0045                    -0.0225                  340.15370269800127
0.0045                    -0.0215                  340.86603004172184
0.0045                    -0.0205                  341.57835738544236
0.0045                    -0.0195                  341.90231975905493
0.0045                    -0.0185                  342.9943887549349
0.0045                    -0.0175                  344.0864577508148
0.0045                    -0.0165                  344.31286489142457
0.0045                    -0.0155                  344.4329582569076
0.0045                    -0.0145                  344.5530516223907
0.0045                    -0.0135                  343.4653773831376
0.0045                    -0.0125                  341.4582110589686
0.0045                    -0.0115                  339.45104473479955
0.0045                    -0.0105                  336.56073751787187
0.0045                    -0.0095                  333.0118438321947
0.0045                    -0.0085                  329.46295014651747
0.0045                    -0.0075                  323.22297365436384
0.0045                    -0.0065                  317.0528402444614
0.0045                    -0.0055                  311.0297723290085
0.0045                    -0.0045                  305.94930573880345
0.0045                    -0.0035                  300.0686951842022
0.0045                    -0.0025                  296.38298863897273
0.0045                    -0.0015                  295.1537141464041
0.0045                    -5.0E-4                  293.9244396538356
0.0045                    5.0E-4                   293.84477867293754
0.0045                    0.0015                   294.53277692887025
0.0045                    0.0025                   295.2310291882871
0.0045                    0.0035                   298.975556842603
0.0045                    0.0045                   303.825948065312
0.0045                    0.0055                   307.5889343608858
0.0045                    0.0065                   313.78366664243435
0.0045                    0.0075                   319.97839892398304
0.0045                    0.0085                   326.01401849159777
0.0045                    0.0095                   328.97732607684236
0.0045                    0.0105                   331.94063366208695
0.0045                    0.0115                   334.8219123590831
0.0045                    0.0125                   337.544825676264
0.0045                    0.0135                   340.2677389934449
0.0045                    0.0145                   341.7730237552768
0.0045                    0.0155                   342.8370805030582
0.0045                    0.0165                   343.90113725083955
0.0045                    0.0175                   344.1664950178301
0.0045                    0.0185                   343.6927469091564
0.0045                    0.0195                   343.2189988004829
0.0045                    0.0205                   342.87989595906225
0.0045                    0.0215                   342.0631952424634
0.0045                    0.0225                   341.2464945258645
0.0045                    0.0235                   341.3076154551502
0.0045                    0.0245                   341.26273158727963
0.0045                    0.0255                   341.7238687647938
0.0045                    0.0265                   343.2608738013736
0.0045                    0.0275                   345.06031840344656
0.0045                    0.0285                   348.37881988553465
0.0045                    0.0295                   351.6973213676227
0.0045                    0.0305                   354.15103805732406
0.0045                    0.0315                   356.2480468457072
0.0055                    -0.0315                  360.2842541686026
0.0055                    -0.0305                  358.01532316738803
0.0055                    -0.0295                  355.7604813839509
0.0055                    -0.0285                  351.54605130582195
0.0055                    -0.0275                  347.49750866237633
0.0055                    -0.0265                  344.2982051953934
0.0055                    -0.0255                  343.0676246701663
0.0055                    -0.0245                  342.1504340070336
0.0055                    -0.0235                  341.3633536743604
0.0055                    -0.0225                  342.5276770080062
0.0055                    -0.0215                  343.2378882904686
0.0055                    -0.0205                  343.948099572931
0.0055                    -0.0195                  345.50388213825977
0.0055                    -0.0185                  346.5850194576856
0.0055                    -0.0175                  347.6473932250565
0.0055                    -0.0165                  348.1675438865037
0.0055                    -0.0155                  348.26894118839795
0.0055                    -0.0145                  348.15737346020205
0.0055                    -0.0135                  345.9247715338435
0.0055                    -0.0125                  343.9125837779296
0.0055                    -0.0115                  341.55329402040866
0.0055                    -0.0105                  336.92072033801037
0.0055                    -0.0095                  333.3535723957731
0.0055                    -0.0085                  329.75433417427547
0.0055                    -0.0075                  325.25773016493235
0.0055                    -0.0065                  319.0023307373292
0.0055                    -0.0055                  313.162240898183
0.0055                    -0.0045                  307.6036418281627
0.0055                    -0.0035                  301.77290034054033
0.0055                    -0.0025                  296.7139333169425
0.0055                    -0.0015                  295.17120158414093
0.0055                    -5.0E-4                  293.9828362662332
0.0055                    5.0E-4                   293.7281208333913
0.0055                    0.0015                   294.4906892783339
0.0055                    0.0025                   295.8612952821985
0.0055                    0.0035                   299.7067207771331
0.0055                    0.0045                   304.54418596741505
0.0055                    0.0055                   309.74373680016373
0.0055                    0.0065                   315.76298166172575
0.0055                    0.0075                   321.917992273809
0.0055                    0.0085                   325.14246117685855
0.0055                    0.0095                   328.0921218619942
0.0055                    0.0105                   331.0542535287329
0.0055                    0.0115                   335.4489630293998
0.0055                    0.0125                   338.19041265063004
0.0055                    0.0135                   340.93186227186027
0.0055                    0.0145                   344.49906894526
0.0055                    0.0155                   345.56709315040905
0.0055                    0.0165                   346.6351173555582
0.0055                    0.0175                   347.5158079288985
0.0055                    0.0185                   347.0392578756742
0.0055                    0.0195                   346.5627078224499
0.0055                    0.0205                   345.5174180254437
0.0055                    0.0215                   344.7081749301432
0.0055                    0.0225                   343.78908376816065
0.0055                    0.0235                   342.4786743619252
0.0055                    0.0245                   342.45690442671605
0.0055                    0.0255                   342.6575662918618
0.0055                    0.0265                   343.0584575347061
0.0055                    0.0275                   344.5749657425511
0.0055                    0.0285                   347.8549282001517
0.0055                    0.0295                   351.1157769069435
0.0055                    0.0305                   353.46695414423795
0.0055                    0.0315                   355.5575456120336
0.0065                    -0.0315                  359.8158459835812
0.0065                    -0.0305                  357.5198607576298
0.0065                    -0.0295                  355.1486283075028
0.0065                    -0.0285                  350.8844949806682
0.0065                    -0.0275                  346.6203616538336
0.0065                    -0.0265                  345.17261987440565
0.0065                    -0.0255                  343.90143777769185
0.0065                    -0.0245                  342.8519531818943
0.0065                    -0.0235                  343.43886660297335
0.0065                    -0.0225                  344.72041353049735
0.0065                    -0.0215                  345.68573693064536
0.0065                    -0.0205                  346.9701730024337
0.0065                    -0.0195                  348.674757808519
0.0065                    -0.0185                  350.0108536656208
0.0065                    -0.0175                  350.7666340524023
0.0065                    -0.0165                  351.36231323986436
0.0065                    -0.0155                  351.697621647618
0.0065                    -0.0145                  350.03831735825105
0.0065                    -0.0135                  347.76625813618614
0.0065                    -0.0125                  345.6345897508054
0.0065                    -0.0115                  341.4044929474662
0.0065                    -0.0105                  336.51051513652055
0.0065                    -0.0095                  332.4267309167163
0.0065                    -0.0085                  328.72833834449057
0.0065                    -0.0075                  325.007157070881
0.0065                    -0.0065                  319.4049603685146
0.0065                    -0.0055                  314.14180884766057
0.0065                    -0.0045                  308.87353749850536
0.0065                    -0.0035                  303.3862532304571
0.0065                    -0.0025                  298.5758528741718
0.0065                    -0.0015                  295.03635190674373
0.0065                    -5.0E-4                  294.36991895674885
0.0065                    5.0E-4                   293.9792624026117
0.0065                    0.0015                   294.31324657832636
0.0065                    0.0025                   297.01573277022754
0.0065                    0.0035                   299.83383491942095
0.0065                    0.0045                   304.76475205007546
0.0065                    0.0055                   310.1810509969238
0.0065                    0.0065                   315.7744235214852
0.0065                    0.0075                   320.38527594547094
0.0065                    0.0085                   322.99082506975236
0.0065                    0.0095                   325.72201876175274
0.0065                    0.0105                   329.56106923903013
0.0065                    0.0115                   334.173457520279