% Model:              SIMBench260525.mph
% Version:            COMSOL 6.2.0.339
% Date:               May 27 2026, 17:17
% Dimension:          2
% Nodes:              4096
% Expressions:        1
% Description:        温度
% Length unit:        m
% x                       y                        T (K)
% mirrored_by_python_y_to_minus_y, coord_match_decimals=12
0.0005 -0.0315 293.144157915
0.0005 -0.0305 293.170031237
0.0005 -0.0295 293.195904559
0.0005 -0.0285 293.164665945
0.0005 -0.0275 293.179562593
0.0005 -0.0265 293.194459241
0.0005 -0.0255 293.161684008
0.0005 -0.0245 293.144527461
0.0005 -0.0235 293.327623483
0.0005 -0.0225 293.726968109
0.0005 -0.0215 294.758743975
0.0005 -0.0205 294.886056628
0.0005 -0.0195 295.01336928
0.0005 -0.0185 298.036440401
0.0005 -0.0175 299.734703887
0.0005 -0.0165 302.172747648
0.0005 -0.0155 311.100177119
0.0005 -0.0145 320.183054149
0.0005 -0.0135 327.26361384
0.0005 -0.0125 330.480821844
0.0005 -0.0115 334.391504778
0.0005 -0.0105 336.746864155
0.0005 -0.0095 337.857379116
0.0005 -0.0085 339.1301551
0.0005 -0.0075 339.601669151
0.0005 -0.0065 339.976854333
0.0005 -0.0055 340.357366693
0.0005 -0.0045 340.322470698
0.0005 -0.0035 340.405148638
0.0005 -0.0025 340.487826577
0.0005 -0.0015 340.355022802
0.0005 -0.0005 340.3715889
0.0005 0.0005 340.375388488
0.0005 0.0015 340.279362166
0.0005 0.0025 340.284581272
0.0005 0.0035 340.268460823
0.0005 0.0045 340.275478249
0.0005 0.0055 340.343137605
0.0005 0.0065 340.410629057
0.0005 0.0075 340.565606155
0.0005 0.0085 340.746269258
0.0005 0.0095 340.990497277
0.0005 0.0105 341.382132221
0.0005 0.0115 341.780895415
0.0005 0.0125 342.332516039
0.0005 0.0135 342.681364219
0.0005 0.0145 343.030212398
0.0005 0.0155 343.748896715
0.0005 0.0165 344.114720241
0.0005 0.0175 344.485240137
0.0005 0.0185 345.123918178
0.0005 0.0195 345.632095911
0.0005 0.0205 346.152522267
0.0005 0.0215 346.79242752
0.0005 0.0225 347.47940289
0.0005 0.0235 348.122798723
0.0005 0.0245 349.069450598
0.0005 0.0255 350.184491933
0.0005 0.0265 351.32577194
0.0005 0.0275 353.324297248
0.0005 0.0285 355.458212843
0.0005 0.0295 357.821536729
0.0005 0.0305 359.388419682
0.0005 0.0315 360.9548455
0.0015 -0.0315 293.429901655
0.0015 -0.0305 293.360824081
0.0015 -0.0295 293.349766742
0.0015 -0.0285 293.268108597
0.0015 -0.0275 293.267108241
0.0015 -0.0265 293.23392271
0.0015 -0.0255 293.167663004
0.0015 -0.0245 293.168782542
0.0015 -0.0235 293.371408758
0.0015 -0.0225 294.225364671
0.0015 -0.0215 295.467788103
0.0015 -0.0205 296.466736356
0.0015 -0.0195 298.118289612
0.0015 -0.0185 302.451661259
0.0015 -0.0175 305.03985998
0.0015 -0.0165 311.560063564
0.0015 -0.0155 320.32252508
0.0015 -0.0145 329.377522769
0.0015 -0.0135 332.069695185
0.0015 -0.0125 334.011485183
0.0015 -0.0115 337.798542657
0.0015 -0.0105 338.113202299
0.0015 -0.0095 338.647059332
0.0015 -0.0085 339.658894685
0.0015 -0.0075 339.574535395
0.0015 -0.0065 339.669930001
0.0015 -0.0055 339.834191621
0.0015 -0.0045 339.597140895
0.0015 -0.0035 339.533891022
0.0015 -0.0025 339.451781939
0.0015 -0.0015 339.210193203
0.0015 -0.0005 339.149397977
0.0015 0.0005 339.033330152
0.0015 0.0015 338.850745876
0.0015 0.0025 338.828991578
0.0015 0.0035 338.755006702
0.0015 0.0045 338.665784571
0.0015 0.0055 338.733443927
0.0015 0.0065 338.800669412
0.0015 0.0075 338.886361962
0.0015 0.0085 339.083366875
0.0015 0.0095 339.382340901
0.0015 0.0105 339.712450788
0.0015 0.0115 340.18701796
0.0015 0.0125 340.843339195
0.0015 0.0135 341.356804235
0.0015 0.0145 341.977323254
0.0015 0.0155 342.922691397
0.0015 0.0165 343.511070308
0.0015 0.0175 344.099098018
0.0015 0.0185 344.824393034
0.0015 0.0195 345.381254929
0.0015 0.0205 345.945416166
0.0015 0.0215 346.526696906
0.0015 0.0225 347.205970931
0.0015 0.0235 347.769384329
0.0015 0.0245 348.349550857
0.0015 0.0255 349.468909049
0.0015 0.0265 350.638319
0.0015 0.0275 352.010719548
0.0015 0.0285 354.336388278
0.0015 0.0295 356.962739777
0.0015 0.0305 358.920256866
0.0015 0.0315 360.456367967
0.0025 -0.0315 293.71983383
0.0025 -0.0305 293.622469416
0.0025 -0.0295 293.509625963
0.0025 -0.0285 293.398437179
0.0025 -0.0275 293.346669894
0.0025 -0.0265 293.253337086
0.0025 -0.0255 293.173642001
0.0025 -0.0245 293.2111638
0.0025 -0.0235 293.718975401
0.0025 -0.0225 294.723761232
0.0025 -0.0215 296.015617402
0.0025 -0.0205 297.696566944
0.0025 -0.0195 302.4473762
0.0025 -0.0185 306.808226869
0.0025 -0.0175 311.655852104
0.0025 -0.0165 320.485307706
0.0025 -0.0155 329.314763307
0.0025 -0.0145 334.559172531
0.0025 -0.0135 336.350750228
0.0025 -0.0125 338.142327925
0.0025 -0.0115 338.889474848
0.0025 -0.0105 339.204134491
0.0025 -0.0095 339.518794134
0.0025 -0.0085 339.467094886
0.0025 -0.0075 339.382735595
0.0025 -0.0065 339.298376305
0.0025 -0.0055 339.056190852
0.0025 -0.0045 338.818779026
0.0025 -0.0035 338.584687101
0.0025 -0.0025 338.344996708
0.0025 -0.0015 338.103266776
0.0025 -0.0005 337.884509242
0.0025 0.0005 337.701976869
0.0025 0.0015 337.519444497
0.0025 0.0025 337.373824367
0.0025 0.0035 337.283237649
0.0025 0.0045 337.192650931
0.0025 0.0055 337.170190267
0.0025 0.0065 337.238162272
0.0025 0.0075 337.306134278
0.0025 0.0085 337.493879398
0.0025 0.0095 337.793232444
0.0025 0.0105 338.09258549
0.0025 0.0115 338.629879812
0.0025 0.0125 339.285239231
0.0025 0.0135 339.949180631
0.0025 0.0145 340.869453371
0.0025 0.0155 341.810817613
0.0025 0.0165 342.921488696
0.0025 0.0175 343.65650948
0.0025 0.0185 344.383463971
0.0025 0.0195 345.324868739
0.0025 0.0205 345.901347055
0.0025 0.0215 346.477825372
0.0025 0.0225 347.04158212
0.0025 0.0235 347.61437086
0.0025 0.0245 348.1871596
0.0025 0.0255 348.919473282
0.0025 0.0265 350.123068643
0.0025 0.0275 351.342403192
0.0025 0.0285 353.501777195
0.0025 0.0295 356.155065582
0.0025 0.0305 358.26927671
0.0025 0.0315 359.957890433
0.0035 -0.0315 293.940570639
0.0035 -0.0305 293.860973615
0.0035 -0.0295 293.748880885
0.0035 -0.0285 293.600292459
0.0035 -0.0275 293.373646878
0.0035 -0.0265 293.276031385
0.0035 -0.0255 293.236610805
0.0035 -0.0245 293.34654522
0.0035 -0.0235 293.794161045
0.0035 -0.0225 295.544824291
0.0035 -0.0215 297.927707607
0.0035 -0.0205 301.762851071
0.0035 -0.0195 309.910144924
0.0035 -0.0185 314.270995593
0.0035 -0.0175 320.023899591
0.0035 -0.0165 327.320644859
0.0035 -0.0155 335.787870191
0.0035 -0.0145 336.046395802
0.0035 -0.0135 337.37757135
0.0035 -0.0125 338.677710532
0.0035 -0.0115 338.359781721
0.0035 -0.0105 338.588037174
0.0035 -0.0095 338.628328886
0.0035 -0.0085 338.254657032
0.0035 -0.0075 338.170297742
0.0035 -0.0065 337.961199304
0.0035 -0.0055 337.664429835
0.0035 -0.0045 337.427018009
0.0035 -0.0035 337.211071556
0.0035 -0.0025 336.992207328
0.0035 -0.0015 336.750477396
0.0035 -0.0005 336.596401028
0.0035 0.0005 336.43499855
0.0035 0.0015 336.254616688
0.0035 0.0025 336.151446844
0.0035 0.0035 336.056380081
0.0035 0.0045 335.970058091
0.0035 0.0055 335.902680735
0.0035 0.0065 335.942521076
0.0035 0.0075 335.996396383
0.0035 0.0085 336.022919844
0.0035 0.0095 336.3045406
0.0035 0.0105 336.580584716
0.0035 0.0115 336.862591046
0.0035 0.0125 337.517950464
0.0035 0.0135 338.272465344
0.0035 0.0145 339.108348426
0.0035 0.0155 340.049712669
0.0035 0.0165 341.616670497
0.0035 0.0175 342.961026387
0.0035 0.0185 343.687980878
0.0035 0.0195 345.510672856
0.0035 0.0205 346.670843555
0.0035 0.0215 347.240170423
0.0035 0.0225 347.757467502
0.0035 0.0235 348.313158456
0.0035 0.0245 348.782704561
0.0035 0.0255 348.984656513
0.0035 0.0265 349.98018676
0.0035 0.0275 351.43849979
0.0035 0.0285 353.06130318
0.0035 0.0295 355.475105857
0.0035 0.0305 357.36671499
0.0035 0.0315 359.294415155
0.0045 -0.0315 294.0552919
0.0045 -0.0305 294.04232573
0.0045 -0.0295 293.904488487
0.0045 -0.0285 293.638033927
0.0045 -0.0275 293.407316115
0.0045 -0.0265 293.304548887
0.0045 -0.0255 293.315113193
0.0045 -0.0245 293.432015423
0.0045 -0.0235 294.34910583
0.0045 -0.0225 297.159511821
0.0045 -0.0215 299.89021825
0.0045 -0.0205 306.97157226
0.0045 -0.0195 315.581940378
0.0045 -0.0185 322.276236576
0.0045 -0.0175 328.430971874
0.0045 -0.0165 334.585707172
0.0045 -0.0155 337.750271904
0.0045 -0.0145 338.008797515
0.0045 -0.0135 338.404392473
0.0045 -0.0125 338.44442446
0.0045 -0.0115 338.12649565
0.0045 -0.0105 337.971939857
0.0045 -0.0095 337.59474485
0.0045 -0.0085 337.214635601
0.0045 -0.0075 336.92299035
0.0045 -0.0065 336.613192981
0.0045 -0.0055 336.303395611
0.0045 -0.0045 336.044721173
0.0045 -0.0035 335.837456011
0.0045 -0.0025 335.63019085
0.0045 -0.0015 335.44524044
0.0045 -0.0005 335.304270596
0.0045 0.0005 335.163300753
0.0045 0.0015 335.035402926
0.0045 0.0025 334.932233082
0.0045 0.0035 334.829522513
0.0045 0.0045 334.75716109
0.0045 0.0055 334.689783734
0.0045 0.0065 334.64687988
0.0045 0.0075 334.675841125
0.0045 0.0085 334.702364586
0.0045 0.0095 334.811312353
0.0045 0.0105 335.063608067
0.0045 0.0115 335.31590378
0.0045 0.0125 335.789072595
0.0045 0.0135 336.595750057
0.0045 0.0145 337.402427518
0.0045 0.0155 338.607428599
0.0045 0.0165 340.311852298
0.0045 0.0175 342.016275998
0.0045 0.0185 343.650087708
0.0045 0.0195 345.499882792
0.0045 0.0205 347.349677876
0.0045 0.0215 347.972832562
0.0045 0.0225 348.490129642
0.0045 0.0235 349.011946053
0.0045 0.0245 349.258531154
0.0045 0.0255 349.460483105
0.0045 0.0265 349.911418321
0.0045 0.0275 351.532938084
0.0045 0.0285 353.154457847
0.0045 0.0295 354.806929094
0.0045 0.0305 356.892717105
0.0045 0.0315 359.000064217
0.0055 -0.0315 294.166959179
0.0055 -0.0305 294.063271717
0.0055 -0.0295 293.905772975
0.0055 -0.0285 293.665979659
0.0055 -0.0275 293.440985352
0.0055 -0.0265 293.337166784
0.0055 -0.0255 293.271942163
0.0055 -0.0245 293.387975338
0.0055 -0.0235 294.503875713
0.0055 -0.0225 296.703521263
0.0055 -0.0215 301.626066364
0.0055 -0.0205 309.516743995
0.0055 -0.0195 318.396856392
0.0055 -0.0185 326.932552339
0.0055 -0.0175 332.979156916
0.0055 -0.0165 337.84301745
0.0055 -0.0155 337.860498321
0.0055 -0.0145 338.133203761
0.0055 -0.0135 338.161492194
0.0055 -0.0125 337.843188568
0.0055 -0.0115 337.525767044
0.0055 -0.0105 337.271579069
0.0055 -0.0095 336.950449397
0.0055 -0.0085 336.570357847
0.0055 -0.0075 336.368465191
0.0055 -0.0065 336.089937915
0.0055 -0.0055 335.780395693
0.0055 -0.0045 335.667665952
0.0055 -0.0035 335.464091495
0.0055 -0.0025 335.267078577
0.0055 -0.0015 335.184192002
0.0055 -0.0005 335.044368705
0.0055 0.0005 334.9181812
0.0055 0.0015 334.831856483
0.0055 0.0025 334.731184829
0.0055 0.0035 334.627319013
0.0055 0.0045 334.537955873
0.0055 0.0055 334.475035238
0.0055 0.0065 334.361002281
0.0055 0.0075 334.310900584
0.0055 0.0085 334.343644167
0.0055 0.0095 334.245964944
0.0055 0.0105 334.37874123
0.0055 0.0115 334.637955072
0.0055 0.0125 334.660910577
0.0055 0.0135 335.323104498
0.0055 0.0145 336.12964027
0.0055 0.0155 336.586159741
0.0055 0.0165 338.230777618
0.0055 0.0175 339.951205874
0.0055 0.0185 341.765984901
0.0055 0.0195 343.63185955
0.0055 0.0205 345.900207912
0.0055 0.0215 348.114873962
0.0055 0.0225 348.63616345
0.0055 0.0235 349.439909102
0.0055 0.0245 350.090299811
0.0055 0.0255 350.316313058
0.0055 0.0265 350.570592243
0.0055 0.0275 351.572222641
0.0055 0.0285 353.197680459
0.0055 0.0295 355.120506324
0.0055 0.0305 356.900223012
0.0055 0.0315 358.705713278
0.0065 -0.0315 294.150145913
0.0065 -0.0305 294.045029179
0.0065 -0.0295 293.897440137
0.0065 -0.0285 293.656793868
0.0065 -0.0275 293.434203433
0.0065 -0.0265 293.358655168
0.0065 -0.0255 293.265029363
0.0065 -0.0245 293.818874776
0.0065 -0.0235 295.032662599
0.0065 -0.0225 297.262254527
0.0065 -0.0215 304.353913622
0.0065 -0.0205 311.689420236
0.0065 -0.0195 320.343291437
0.0065 -0.0185 328.85712672
0.0065 -0.0175 336.390450275
0.0065 -0.0165 337.684991789
0.0065 -0.0155 337.617799028
0.0065 -0.0145 337.774344641
0.0065 -0.0135 337.460160825
0.0065 -0.0125 337.141036226
0.0065 -0.0115 336.843151596
0.0065 -0.0105 336.632726811
0.0065 -0.0095 336.414406912
0.0065 -0.0085 336.118070688
0.0065 -0.0075 335.974035502
0.0065 -0.0065 335.795527506
0.0065 -0.0055 335.597265821
0.0065 -0.0045 335.502609869
0.0065 -0.0035 335.366816958
0.0065 -0.0025 335.249422212
0.0065 -0.0015 335.174816674
0.0065 -0.0005 335.066207009
0.0065 0.0005 334.975567398
0.0065 0.0015 334.89479325
0.0065 0.0025 334.800671136
0.0065 0.0035 334.691837495
0.0065 0.0045 334.582905792
0.0065 0.0055 334.497974085
0.0065 0.0065 334.340704752
0.0065 0.0075 334.183435418
0.0065 0.0085 334.150792901
0.0065 0.0095 333.9959591
0.0065 0.0105 333.869600782
0.0065 0.0115 334.005262102
0.0065 0.0125 333.986294501
0.0065 0.0135 334.12317407
0.0065 0.0145 334.720117389
0.0065 0.0155 335.17663686
0.0065 0.0165 336.02888191
0.0065 0.0175 337.813206751
0.0065 0.0185 339.621120068
0.0065 0.0195 341.457518574
0.0065 0.0205 344.412500939
0.0065 0.0215 347.387095642
0.0065 0.0225 348.731609635
0.0065 0.0235 349.82642219
0.0065 0.0245 350.921234745
0.0065 0.0255 351.197433042
0.0065 0.0265 351.465928099
0.0065 0.0275 351.734423157
0.0065 0.0285 353.502019192
0.0065 0.0295 355.424845058
0.0065 0.0305 357.217051928
0.0065 0.0315 358.954568966
0.0075 -0.0315 294.135763978
0.0075 -0.0305 294.029670601
0.0075 -0.0295 293.879858111
0.0075 -0.0285 293.643635625
0.0075 -0.0275 293.406509999
0.0075 -0.0265 293.330961734
0.0075 -0.0255 293.302317583
0.0075 -0.0245 294.197014592
0.0075 -0.0235 295.359554347
0.0075 -0.0225 298.331893021
0.0075 -0.0215 305.866921686
0.0075 -0.0205 313.952118203
0.0075 -0.0195 322.918408627
0.0075 -0.0185 331.51630687
0.0075 -0.0175 337.458670956
0.0075 -0.0165 337.478898324
0.0075 -0.0155 337.413511599
0.0075 -0.0145 337.289373139
0.0075 -0.0135 336.969240471
0.0075 -0.0125 336.649107803
0.0075 -0.0115 336.487299043
0.0075 -0.0105 336.277360119
0.0075 -0.0095 336.067421195
0.0075 -0.0085 336.013008238
0.0075 -0.0075 335.86927784
0.0075 -0.0065 335.757392796
0.0075 -0.0055 335.74787617
0.0075 -0.0045 335.653253861
0.0075 -0.0035 335.617504678
0.0075 -0.0025 335.588924425
0.0075 -0.0015 335.514937558
0.0075 -0.0005 335.484273448
0.0075 0.0005 335.414231872
0.0075 0.0015 335.335218368
0.0075 0.0025 335.223278249
0.0075 0.0035 335.117536302
0.0075 0.0045 335.011794354
0.0075 0.0055 334.793361274
0.0075 0.0065 334.640339197
0.0075 0.0075 334.48731712
0.0075 0.0085 334.195705706
0.0075 0.0095 334.046208605
0.0075 0.0105 333.886739064
0.0075 0.0115 333.651480458
0.0075 0.0125 333.640315626
0.0075 0.0135 333.577410941
0.0075 0.0145 333.705023332
0.0075 0.0155 334.172058346
0.0075 0.0165 334.499745664
0.0075 0.0175 335.7384333
0.0075 0.0185 337.547443097
0.0075 0.0195 339.043814731
0.0075 0.0205 341.872853908
0.0075 0.0215 344.888555316
0.0075 0.0225 348.078750365
0.0075 0.0235 349.38625886
0.0075 0.0245 350.693767356
0.0075 0.0255 352.04618771
0.0075 0.0265 352.280654457
0.0075 0.0275 352.515121204
0.0075 0.0285 354.176941401
0.0075 0.0295 355.855720263
0.0075 0.0305 357.456869928
0.0075 0.0315 359.161857187
0.0085 -0.0315 294.11527384
0.0085 -0.0305 293.972545312
0.0085 -0.0295 293.813822479
0.0085 -0.0285 293.602227006
0.0085 -0.0275 293.387328035
0.0085 -0.0265 293.393079336
0.0085 -0.0255 293.429063372
0.0085 -0.0245 294.260826718
0.0085 -0.0235 295.624039022
0.0085 -0.0225 299.446543791
0.0085 -0.0215 307.434133321
0.0085 -0.0205 316.074256094
0.0085 -0.0195 326.443170621
0.0085 -0.0185 335.140378776
0.0085 -0.0175 336.937838308
0.0085 -0.0165 337.216143829
0.0085 -0.0155 337.138715087
0.0085 -0.0145 336.991588712
0.0085 -0.0135 336.760303004
0.0085 -0.0125 336.534700604
0.0085 -0.0115 336.468237221
0.0085 -0.0105 336.304876825
0.0085 -0.0095 336.231875161
0.0085 -0.0085 336.267873809
0.0085 -0.0075 336.153029737
0.0085 -0.0065 336.200663182
0.0085 -0.0055 336.320908517
0.0085 -0.0045 336.226286208
0.0085 -0.0035 336.317823433
0.0085 -0.0025 336.404720368
0.0085 -0.0015 336.334434972
0.0085 -0.0005 336.360040267
0.0085 0.0005 336.353736099
0.0085 0.0015 336.26343449
0.0085 0.0025 336.125236548
0.0085 0.0035 336.001548531
0.0085 0.0045 335.830895437
0.0085 0.0055 335.535416438
0.0085 0.0065 335.322275914
0.0085 0.0075 335.048971135
0.0085 0.0085 334.650205652
0.0085 0.0095 334.424774533
0.0085 0.0105 334.111099875
0.0085 0.0115 333.701829394
0.0085 0.0125 333.610776961
0.0085 0.0135 333.389899812
0.0085 0.0145 333.108572924
0.0085 0.0155 333.498988599
0.0085 0.0165 333.606396008
0.0085 0.0175 333.710599595
0.0085 0.0185 335.435734255
0.0085 0.0195 336.702952713
0.0085 0.0205 338.520806841
0.0085 0.0215 341.919792641
0.0085 0.0225 345.79838561
0.0085 0.0235 347.647806825
0.0085 0.0245 349.575944589
0.0085 0.0255 351.239284847
0.0085 0.0265 352.63847505
0.0085 0.0275 353.375560757
0.0085 0.0285 354.965760269
0.0085 0.0295 356.471866971
0.0085 0.0305 357.939646976
0.0085 0.0315 359.399019039
0.0095 -0.0315 294.062802692
0.0095 -0.0305 293.904442136
0.0095 -0.0295 293.747786846
0.0095 -0.0285 293.551284061
0.0095 -0.0275 293.39084041
0.0095 -0.0265 293.476709001
0.0095 -0.0255 293.555809161
0.0095 -0.0245 294.324638845
0.0095 -0.0235 296.200190973
0.0095 -0.0225 300.112171644
0.0095 -0.0215 308.876783547
0.0095 -0.0205 318.196393985
0.0095 -0.0195 328.813080279
0.0095 -0.0185 336.123388035
0.0095 -0.0175 336.481897159
0.0095 -0.0165 336.840406283
0.0095 -0.0155 336.84368876
0.0095 -0.0145 336.699057964
0.0095 -0.0135 336.554427168
0.0095 -0.0125 336.500739934
0.0095 -0.0115 336.4360914
0.0095 -0.0105 336.412356287
0.0095 -0.0095 336.450151273
0.0095 -0.0085 336.487946258
0.0095 -0.0075 336.589120409
0.0095 -0.0065 336.7085286
0.0095 -0.0055 336.82793679
0.0095 -0.0045 336.983046857
0.0095 -0.0035 337.100822723
0.0095 -0.0025 337.218598589
0.0095 -0.0015 337.309492595
0.0095 -0.0005 337.33723823
0.0095 0.0005 337.364983864
0.0095 0.0015 337.279938929
0.0095 0.0025 337.146415919
0.0095 0.0035 337.012892908
0.0095 0.0045 336.724767085
0.0095 0.0055 336.436879976
0.0095 0.0065 336.114730445
0.0095 0.0075 335.712868915
0.0095 0.0085 335.323370052
0.0095 0.0095 334.862092728
0.0095 0.0105 334.463285913
0.0095 0.0115 334.064479099
0.0095 0.0125 333.601295739
0.0095 0.0135 333.335776314
0.0095 0.0145 333.070256889
0.0095 0.0155 332.798649574
0.0095 0.0165 332.907126198
0.0095 0.0175 333.015602821
0.0095 0.0185 333.404624017
0.0095 0.0195 334.672408418
0.0095 0.0205 335.88809546
0.0095 0.0215 338.742377027
0.0095 0.0225 342.553948731
0.0095 0.0235 346.298155694
0.0095 0.0245 348.590984015
0.0095 0.0255 350.248852491
0.0095 0.0265 351.80921837
0.0095 0.0275 353.897473547
0.0095 0.0285 355.581906976
0.0095 0.0295 357.088013678
0.0095 0.0305 358.555844647
0.0095 0.0315 359.888586022
0.0105 -0.0315 294.027406274
0.0105 -0.0305 293.865394993
0.0105 -0.0295 293.706290801
0.0105 -0.0285 293.562038005
0.0105 -0.0275 293.401594354
0.0105 -0.0265 293.474555934
0.0105 -0.0255 293.639638025
0.0105 -0.0245 295.170534554
0.0105 -0.0235 297.485837969
0.0105 -0.0225 300.058247369
0.0105 -0.0215 309.462329435
0.0105 -0.0205 322.695692711
0.0105 -0.0195 333.007736572
0.0105 -0.0185 335.80019969
0.0105 -0.0175 336.566189676
0.0105 -0.0165 336.829606793
0.0105 -0.0155 336.901564944
0.0105 -0.0145 336.756934148
0.0105 -0.0135 336.778910579
0.0105 -0.0125 336.855378225
0.0105 -0.0115 336.790729691
0.0105 -0.0105 337.037286229
0.0105 -0.0095 337.235164423
0.0105 -0.0085 337.272959408
0.0105 -0.0075 337.761558625
0.0105 -0.0065 338.029237514
0.0105 -0.0055 338.185210935
0.0105 -0.0045 338.723321449
0.0105 -0.0035 338.930852651
0.0105 -0.0025 339.108387027
0.0105 -0.0015 339.473919075
0.0105 -0.0005 339.523070067
0.0105 0.0005 339.548137234
0.0105 0.0015 339.556669043
0.0105 0.0025 339.423146033
0.0105 0.0035 339.160275477
0.0105 0.0045 338.805715881
0.0105 0.0055 338.517828773
0.0105 0.0065 337.960657092
0.0105 0.0075 337.376062383
0.0105 0.0085 336.986563521
0.0105 0.0095 336.229755689
0.0105 0.0105 335.582518758
0.0105 0.0115 335.183711944
0.0105 0.0125 334.38179178
0.0105 0.0135 333.843337973
0.0105 0.0145 333.549172305
0.0105 0.0155 332.937992095
0.0105 0.0165 332.737918693
0.0105 0.0175 332.766072625
0.0105 0.0185 332.616427926
0.0105 0.0195 333.332778702
0.0105 0.0205 334.218215675
0.0105 0.0215 334.883855842
0.0105 0.0225 338.650430716
0.0105 0.0235 342.368047903
0.0105 0.0245 346.064424443
0.0105 0.0255 349.998830356
0.0105 0.0265 352.137448425
0.0105 0.0275 354.207890704
0.0105 0.0285 355.894911067
0.0105 0.0295 357.639380607
0.0105 0.0305 358.944487113
0.0105 0.0315 360.22549945
0.0115 -0.0315 293.990491085
0.0115 -0.0305 293.823339839
0.0115 -0.0295 293.662600491
0.0115 -0.0285 293.534677734
0.0115 -0.0275 293.406754976
0.0115 -0.0265 293.654352464
0.0115 -0.0255 294.001227434
0.0115 -0.0245 295.424769959
0.0115 -0.0235 298.114145665
0.0115 -0.0225 300.803521371
0.0115 -0.0215 312.487652536
0.0115 -0.0205 325.458129825
0.0115 -0.0195 332.41054893
0.0115 -0.0185 335.030826134
0.0115 -0.0175 336.647844465
0.0115 -0.0165 336.748423064
0.0115 -0.0155 336.849001663
0.0115 -0.0145 336.868284034
0.0115 -0.0135 337.012743251
0.0115 -0.0125 337.157202468
0.0115 -0.0115 337.295897741
0.0115 -0.0105 337.638569381
0.0115 -0.0095 337.981241022
0.0115 -0.0085 338.321156069
0.0115 -0.0075 338.839713678
0.0115 -0.0065 339.349946428
0.0115 -0.0055 339.758167292
0.0115 -0.0045 340.296277807
0.0115 -0.0035 340.760882579
0.0115 -0.0025 341.08753858
0.0115 -0.0015 341.453070628
0.0115 -0.0005 341.708901905
0.0115 0.0005 341.729871946
0.0115 0.0015 341.750798872
0.0115 0.0025 341.666320113
0.0115 0.0035 341.293762048
0.0115 0.0045 340.921203982
0.0115 0.0055 340.487538439
0.0115 0.0065 339.806583739
0.0115 0.0075 339.125629039
0.0115 0.0085 338.462389608
0.0115 0.0095 337.62653377
0.0115 0.0105 336.790677932
0.0115 0.0115 336.073369744
0.0115 0.0125 335.251134653
0.0115 0.0135 334.428899561
0.0115 0.0145 333.863716709
0.0115 0.0155 333.252536499
0.0115 0.0165 332.641356289
0.0115 0.0175 332.471865774
0.0115 0.0185 332.352449415
0.0115 0.0195 332.189791965
0.0115 0.0205 332.701099178
0.0115 0.0215 333.254145259
0.0115 0.0225 334.685146085
0.0115 0.0235 338.172735563
0.0115 0.0245 341.660325041
0.0115 0.0255 346.035338006
0.0115 0.0265 350.995798453
0.0115 0.0275 354.51830786
0.0115 0.0285 356.385394899
0.0115 0.0295 358.268104858
0.0115 0.0305 359.50205492
0.0115 0.0315 360.610508238
0.0125 -0.0315 293.955721016
0.0125 -0.0305 293.780234533
0.0125 -0.0295 293.618910182
0.0125 -0.0285 293.519716475
0.0125 -0.0275 293.482159603
0.0125 -0.0265 293.877796144
0.0125 -0.0255 294.362816843
0.0125 -0.0245 295.679005364
0.0125 -0.0235 298.679952707
0.0125 -0.0225 301.888853013
0.0125 -0.0215 313.949133299
0.0125 -0.0205 326.867369461
0.0125 -0.0195 332.720834558
0.0125 -0.0185 335.125318722
0.0125 -0.0175 336.797324249
0.0125 -0.0165 336.941490868
0.0125 -0.0155 337.067797193
0.0125 -0.0145 337.379820221
0.0125 -0.0135 337.522956712
0.0125 -0.0125 337.666093203
0.0125 -0.0115 338.353140514
0.0125 -0.0105 338.707707016
0.0125 -0.0095 339.160575846
0.0125 -0.0085 340.079629526
0.0125 -0.0075 340.596349473
0.0125 -0.0065 341.299376432
0.0125 -0.0055 342.210320729
0.0125 -0.0045 342.74850368
0.0125 -0.0035 343.480480289
0.0125 -0.0025 344.112650369
0.0125 -0.0015 344.478388694
0.0125 -0.0005 344.896240486
0.0125 0.0005 345.044852303
0.0125 0.0015 345.068781587
0.0125 0.0025 344.909502681
0.0125 0.0035 344.566149382
0.0125 0.0045 344.20102487
0.0125 0.0055 343.406562302
0.0125 0.0065 342.73044637
0.0125 0.0075 342.049450192
0.0125 0.0085 340.79483634
0.0125 0.0095 339.969175108
0.0125 0.0105 339.051663911
0.0125 0.0115 337.695158839
0.0125 0.0125 336.881520395
0.0125 0.0135 335.931937173
0.0125 0.0145 334.726703253
0.0125 0.0155 334.154148305
0.0125 0.0165 333.410946868
0.0125 0.0175 332.51311625
0.0125 0.0185 332.393699892
0.0125 0.0195 332.097514847
0.0125 0.0205 332.208585177
0.0125 0.0215 332.684911773
0.0125 0.0225 333.164661573
0.0125 0.0235 334.530493301
0.0125 0.0245 337.256225638
0.0125 0.0255 341.690407633
0.0125 0.0265 346.511347646
0.0125 0.0275 351.341088609
0.0125 0.0285 356.482582326
0.0125 0.0295 358.896829109
0.0125 0.0305 360.118985442
0.0125 0.0315 360.807394459
0.0135 -0.0315 293.927311082
0.0135 -0.0305 293.751447396
0.0135 -0.0295 293.621461286
0.0135 -0.0285 293.614922648
0.0135 -0.0275 293.577365775
0.0135 -0.0265 293.962195262
0.0135 -0.0255 294.51379733
0.0135 -0.0245 296.369823244
0.0135 -0.0235 299.798493359
0.0135 -0.0225 303.007393665
0.0135 -0.0215 315.559245261
0.0135 -0.0205 328.311746718
0.0135 -0.0195 333.108762515
0.0135 -0.0185 335.569978492
0.0135 -0.0175 337.083100897
0.0135 -0.0165 337.304626439
0.0135 -0.0155 337.535098391
0.0135 -0.0145 337.9109179
0.0135 -0.0135 338.160050507
0.0135 -0.0125 338.644153169
0.0135 -0.0115 339.405259641
0.0135 -0.0105 339.969040308
0.0135 -0.0095 340.833535451
0.0135 -0.0085 341.890161963
0.0135 -0.0075 342.605623061
0.0135 -0.0065 343.695383929
0.0135 -0.0055 344.86288471
0.0135 -0.0045 345.552244559
0.0135 -0.0035 346.525812203
0.0135 -0.0025 347.499379847
0.0135 -0.0015 347.913978047
0.0135 -0.0005 348.36734112
0.0135 0.0005 348.780622264
0.0135 0.0015 348.720686791
0.0135 0.0025 348.496860011
0.0135 0.0035 348.241227007
0.0135 0.0045 347.643257964
0.0135 0.0055 346.790424768
0.0135 0.0065 346.00003149
0.0135 0.0075 344.948623735
0.0135 0.0085 343.658866732
0.0135 0.0095 342.576796895
0.0135 0.0105 341.273930629
0.0135 0.0115 339.811512594
0.0135 0.0125 338.693227298
0.0135 0.0135 337.397119522
0.0135 0.0145 336.009610735
0.0135 0.0155 335.103284546
0.0135 0.0165 334.138777375
0.0135 0.0175 333.10425007
0.0135 0.0185 332.359670078
0.0135 0.0195 332.048403566
0.0135 0.0205 331.730489254
0.0135 0.0215 331.890970524
0.0135 0.0225 332.306011225
0.0135 0.0235 333.671842953
0.0135 0.0245 334.88003588
0.0135 0.0255 337.084544825
0.0135 0.0265 341.789552692
0.0135 0.0275 346.627451961
0.0135 0.0285 351.768945678
0.0135 0.0295 357.188025577
0.0135 0.0305 360.026223011
0.0135 0.0315 360.667470052
0.0145 -0.0315 293.910662298
0.0145 -0.0305 293.762214722
0.0145 -0.0295 293.63507194
0.0145 -0.0285 293.646654473
0.0145 -0.0275 293.658237005
0.0145 -0.0265 294.18117163
0.0145 -0.0255 294.86845138
0.0145 -0.0245 296.716690519
0.0145 -0.0235 300.39609779
0.0145 -0.0225 304.326096629
0.0145 -0.0215 316.588113745
0.0145 -0.0205 328.889899938
0.0145 -0.0195 333.73805882
0.0145 -0.0185 336.045487606
0.0145 -0.0175 337.379157983
0.0145 -0.0165 337.692583534
0.0145 -0.0155 338.041204616
0.0145 -0.0145 338.424544891
0.0145 -0.0135 338.92658084
0.0145 -0.0125 339.735819757
0.0145 -0.0115 340.545058674
0.0145 -0.0105 341.611689859
0.0145 -0.0095 342.768056579
0.0145 -0.0085 343.824945767
0.0145 -0.0075 345.29834756
0.0145 -0.0065 346.467609574
0.0145 -0.0055 347.636871587
0.0145 -0.0045 349.092610288
0.0145 -0.0035 350.063141714
0.0145 -0.0025 351.03367314
0.0145 -0.0015 351.970144779
0.0145 -0.0005 352.422356093
0.0145 0.0005 352.874567407
0.0145 0.0015 352.955763694
0.0145 0.0025 352.736208781
0.0145 0.0035 352.479645857
0.0145 0.0045 351.68835468
0.0145 0.0055 350.847300584
0.0145 0.0065 349.83866714
0.0145 0.0075 348.460864633
0.0145 0.0085 347.185379078
0.0145 0.0095 345.595527438
0.0145 0.0105 344.012495266
0.0145 0.0115 342.5534266
0.0145 0.0125 340.713219603
0.0145 0.0135 339.259726385
0.0145 0.0145 337.836053238
0.0145 0.0155 336.196366677
0.0145 0.0165 335.033226366
0.0145 0.0175 334.065001912
0.0145 0.0185 332.909523444
0.0145 0.0195 332.317565116
0.0145 0.0205 331.990691886
0.0145 0.0215 331.642872148
0.0145 0.0225 331.433730424
0.0145 0.0235 332.363747316
0.0145 0.0245 333.293764208
0.0145 0.0255 335.500532844
0.0145 0.0265 338.342441069
0.0145 0.0275 342.009010639
0.0145 0.0285 347.672767886
0.0145 0.0295 353.336525133
0.0145 0.0305 356.623425678
0.0145 0.0315 359.552808908
0.0155 -0.0315 293.908235573
0.0155 -0.0305 293.775237558
0.0155 -0.0295 293.648682594
0.0155 -0.0285 293.682333863
0.0155 -0.0275 293.752659085
0.0155 -0.0265 294.396622029
0.0155 -0.0255 295.223105429
0.0155 -0.0245 297.063557794
0.0155 -0.0235 301.128695589
0.0155 -0.0225 305.532268023
0.0155 -0.0215 317.394168935
0.0155 -0.0205 329.468053158
0.0155 -0.0195 334.44490648
0.0155 -0.0185 336.539579424
0.0155 -0.0175 337.815964101
0.0155 -0.0165 338.189386341
0.0155 -0.0155 338.533374242
0.0155 -0.0145 339.190948098
0.0155 -0.0135 340.084717913
0.0155 -0.0125 341.215971171
0.0155 -0.0115 342.025210088
0.0155 -0.0105 343.548905941
0.0155 -0.0095 345.125672053
0.0155 -0.0085 346.227768909
0.0155 -0.0075 348.193290175
0.0155 -0.0065 349.840924053
0.0155 -0.0055 351.188485959
0.0155 -0.0045 353.037690096
0.0155 -0.0035 354.388217729
0.0155 -0.0025 355.479201099
0.0155 -0.0015 356.748320066
0.0155 -0.0005 357.430568837
0.0155 0.0005 357.822950684
0.0155 0.0015 358.164065463
0.0155 0.0025 358.024977913
0.0155 0.0035 357.472090689
0.0155 0.0045 356.756394044
0.0155 0.0055 355.917975538
0.0155 0.0065 354.438769716
0.0155 0.0075 352.835310231
0.0155 0.0085 351.559824677
0.0155 0.0095 349.435067286
0.0155 0.0105 347.41590632
0.0155 0.0115 345.867953531
0.0155 0.0125 343.585374286
0.0155 0.0135 341.719760965
0.0155 0.0145 340.12346079
0.0155 0.0155 338.11843591
0.0155 0.0165 336.502989432
0.0155 0.0175 335.018299178
0.0155 0.0185 333.815630672
0.0155 0.0195 332.612962166
0.0155 0.0205 332.238134221
0.0155 0.0215 331.764250103
0.0155 0.0225 331.324783501
0.0155 0.0235 331.297937708
0.0155 0.0245 331.707492535
0.0155 0.0255 333.916520862
0.0155 0.0265 336.137860475
0.0155 0.0275 339.012961076
0.0155 0.0285 344.023170328
0.0155 0.0295 349.485024689
0.0155 0.0305 352.76808865
0.0155 0.0315 355.854208331
0.0165 -0.0315 293.896913903
0.0165 -0.0305 293.763915888
0.0165 -0.0295 293.68987598
0.0165 -0.0285 293.789609677
0.0165 -0.0275 293.859934899
0.0165 -0.0265 294.504622529
0.0165 -0.0255 295.387600204
0.0165 -0.0245 297.819219035
0.0165 -0.0235 302.323220768
0.0165 -0.0225 306.738439416
0.0165 -0.0215 318.600340329
0.0165 -0.0205 330.210805347
0.0165 -0.0195 334.792037573
0.0165 -0.0185 336.842178452
0.0165 -0.0175 338.193721622
0.0165 -0.0165 338.609309987
0.0165 -0.0155 339.401948557
0.0165 -0.0145 340.289336424
0.0165 -0.0135 341.233207406
0.0165 -0.0125 342.431603492