% Model:              SIMBench260525.mph
% Version:            COMSOL 6.2.0.339
% Date:               May 27 2026, 17:42
% Dimension:          2
% Nodes:              4096
% Expressions:        1
% Description:        温度
% Length unit:        m
% x                       y                        T (K)
5.0E-4                    -0.0315                  347.65981032104133
5.0E-4                    -0.0305                  346.13870725126833
5.0E-4                    -0.0295                  344.6058406065985
5.0E-4                    -0.0285                  341.58277980585336
5.0E-4                    -0.0275                  338.2764127704227
5.0E-4                    -0.0265                  334.97004573499214
5.0E-4                    -0.0255                  331.3482965593703
5.0E-4                    -0.0245                  328.28205602952926
5.0E-4                    -0.0235                  325.3038545521928
5.0E-4                    -0.0225                  323.70263839379993
5.0E-4                    -0.0215                  322.0236762941686
5.0E-4                    -0.0205                  320.4930824990199
5.0E-4                    -0.0195                  319.72788256772685
5.0E-4                    -0.0185                  318.7302558507315
5.0E-4                    -0.0175                  317.897405737321
5.0E-4                    -0.0165                  317.29696930052035
5.0E-4                    -0.0155                  316.40101810279145
5.0E-4                    -0.0145                  315.75534475740295
5.0E-4                    -0.0135                  315.1984270283209
5.0E-4                    -0.0125                  314.35014611204303
5.0E-4                    -0.0115                  313.8304971324356
5.0E-4                    -0.0105                  313.28393539713466
5.0E-4                    -0.0095                  312.51001054513006
5.0E-4                    -0.0085                  312.00956885134474
5.0E-4                    -0.0075                  311.188786739692
5.0E-4                    -0.0065                  310.20821631420756
5.0E-4                    -0.0055                  309.32424631710285
5.0E-4                    -0.0045                  307.4778014911098
5.0E-4                    -0.0035                  305.49696793952626
5.0E-4                    -0.0025                  303.3334640252887
5.0E-4                    -0.0015                  300.74138450410584
5.0E-4                    -5.0E-4                  298.1393025857172
5.0E-4                    5.0E-4                   294.6103629005112
5.0E-4                    0.0015                   294.2855079621512
5.0E-4                    0.0025                   293.9606530237913
5.0E-4                    0.0035                   293.619771943367
5.0E-4                    0.0045                   293.66335378565566
5.0E-4                    0.0055                   293.7069356279443
5.0E-4                    0.0065                   293.32149110593923
5.0E-4                    0.0075                   293.21797201776957
5.0E-4                    0.0085                   293.21165358607016
5.0E-4                    0.0095                   293.30178687242085
5.0E-4                    0.0105                   293.5690455981741
5.0E-4                    0.0115                   293.504748737412
5.0E-4                    0.0125                   293.4404518766499
5.0E-4                    0.0135                   293.53070618461703
5.0E-4                    0.0145                   293.6123976539154
5.0E-4                    0.0155                   294.2533548990045
5.0E-4                    0.0165                   295.38295058802515
5.0E-4                    0.0175                   296.1574472441136
5.0E-4                    0.0185                   297.66407951175285
5.0E-4                    0.0195                   299.9080818921639
5.0E-4                    0.0205                   302.1570273591908
5.0E-4                    0.0215                   303.3397711905921
5.0E-4                    0.0225                   304.7277527216593
5.0E-4                    0.0235                   306.0196307452224
5.0E-4                    0.0245                   306.8662357002093
5.0E-4                    0.0255                   308.3372551108872
5.0E-4                    0.0265                   309.55683987713985
5.0E-4                    0.0275                   311.5970193308885
5.0E-4                    0.0285                   314.02466871843455
5.0E-4                    0.0295                   316.43919738045065
5.0E-4                    0.0305                   318.11498171986034
5.0E-4                    0.0315                   319.79076605926986
0.0015                    -0.0315                  346.59990649157857
0.0015                    -0.0305                  345.5047193819283
0.0015                    -0.0295                  343.4257138206391
0.0015                    -0.0285                  340.0725536967183
0.0015                    -0.0275                  336.7436739183462
0.0015                    -0.0265                  333.04393944776143
0.0015                    -0.0255                  329.125723858381
0.0015                    -0.0245                  325.8045413128376
0.0015                    -0.0235                  323.8222866989445
0.0015                    -0.0225                  322.2786595776241
0.0015                    -0.0215                  320.62472764276816
0.0015                    -0.0205                  319.83299329438927
0.0015                    -0.0195                  319.30355057304916
0.0015                    -0.0185                  318.3549494499456
0.0015                    -0.0175                  318.0376706747716
0.0015                    -0.0165                  317.8461225257328
0.0015                    -0.0155                  316.9697580124011
0.0015                    -0.0145                  316.89371343049106
0.0015                    -0.0135                  316.8541159617299
0.0015                    -0.0125                  316.005835045452
0.0015                    -0.0115                  316.0719646500371
0.0015                    -0.0105                  316.0458947400401
0.0015                    -0.0095                  315.30702911386896
0.0015                    -0.0085                  315.17123383903424
0.0015                    -0.0075                  314.8649764667334
0.0015                    -0.0065                  313.90905638206544
0.0015                    -0.0055                  313.11998386081416
0.0015                    -0.0045                  312.0006861130529
0.0015                    -0.0035                  309.95604558158993
0.0015                    -0.0025                  307.6604793597528
0.0015                    -0.0015                  305.25345154650904
0.0015                    -5.0E-4                  302.10339469167604
0.0015                    5.0E-4                   297.85394035106174
0.0015                    0.0015                   295.36731771551507
0.0015                    0.0025                   294.9584847821119
0.0015                    0.0035                   294.47122225530853
0.0015                    0.0045                   294.40135705588057
0.0015                    0.0055                   293.88654793818796
0.0015                    0.0065                   293.4431747259315
0.0015                    0.0075                   293.2450234898655
0.0015                    0.0085                   293.2373662029548
0.0015                    0.0095                   293.3920089171335
0.0015                    0.0105                   293.7907595315221
0.0015                    0.0115                   294.0391423802145
0.0015                    0.0125                   294.05037455953186
0.0015                    0.0135                   294.15182697841124
0.0015                    0.0145                   294.2369111390858
0.0015                    0.0155                   295.99639993575613
0.0015                    0.0165                   297.8361936906414
0.0015                    0.0175                   298.82683246594087
0.0015                    0.0185                   300.92150559899017
0.0015                    0.0195                   303.0784856391809
0.0015                    0.0205                   304.66452325316834
0.0015                    0.0215                   305.42427811132575
0.0015                    0.0225                   306.62671713338483
0.0015                    0.0235                   307.1290934768194
0.0015                    0.0245                   307.3656831253499
0.0015                    0.0255                   308.80039366810837
0.0015                    0.0265                   309.5534180134298
0.0015                    0.0275                   310.8186575995837
0.0015                    0.0285                   313.2458098807525
0.0015                    0.0295                   315.6699894130917
0.0015                    0.0305                   317.68631106156386
0.0015                    0.0315                   319.19394308790896
0.0025                    -0.0315                  345.54000266211574
0.0025                    -0.0305                  343.8951459443053
0.0025                    -0.0295                  341.5088781162694
0.0025                    -0.0285                  338.2333213282101
0.0025                    -0.0275                  334.70852919480956
0.0025                    -0.0265                  330.8181218953331
0.0025                    -0.0255                  326.94065413914643
0.0025                    -0.0245                  324.1036013636648
0.0025                    -0.0235                  322.53830884008244
0.0025                    -0.0225                  320.97301631650015
0.0025                    -0.0215                  319.956320814586
0.0025                    -0.0205                  319.4216534973549
0.0025                    -0.0195                  318.88698618012376
0.0025                    -0.0185                  318.70177294622437
0.0025                    -0.0175                  318.50306979747626
0.0025                    -0.0165                  318.3043666487282
0.0025                    -0.0155                  318.4161214947894
0.0025                    -0.0145                  318.41146256479954
0.0025                    -0.0135                  318.40680363480965
0.0025                    -0.0125                  318.5947374570395
0.0025                    -0.0115                  318.66967433707794
0.0025                    -0.0105                  318.74461121711647
0.0025                    -0.0095                  318.71983351390315
0.0025                    -0.0085                  318.5817773137044
0.0025                    -0.0075                  318.4437211135056
0.0025                    -0.0065                  317.7756591643742
0.0025                    -0.0055                  316.98627615401557
0.0025                    -0.0045                  316.19689314365695
0.0025                    -0.0035                  314.20178354469664
0.0025                    -0.0025                  311.8954280778315
0.0025                    -0.0015                  309.5890726109664
0.0025                    -5.0E-4                  305.78917407312235
0.0025                    5.0E-4                   301.5875365002098
0.0025                    0.0015                   297.3737364488017
0.0025                    0.0025                   296.47578786200955
0.0025                    0.0035                   295.9891485767462
0.0025                    0.0045                   294.6661604787141
0.0025                    0.0055                   294.03458587120156
0.0025                    0.0065                   293.5648583459238
0.0025                    0.0075                   293.328105527306
0.0025                    0.0085                   293.31275594037857
0.0025                    0.0095                   293.4822309618462
0.0025                    0.0105                   293.9267317226283
0.0025                    0.0115                   294.4442199226741
0.0025                    0.0125                   294.97365605748547
0.0025                    0.0135                   295.12043863993495
0.0025                    0.0145                   296.3098281333369
0.0025                    0.0155                   298.28457298930397
0.0025                    0.0165                   300.259317845271
0.0025                    0.0175                   302.30404431780727
0.0025                    0.0185                   304.3983664934239
0.0025                    0.0195                   306.42038807316715
0.0025                    0.0205                   307.2314302268991
0.0025                    0.0215                   307.9873972660201
0.0025                    0.0225                   308.441658591063
0.0025                    0.0235                   308.6143085041965
0.0025                    0.0245                   308.7869584173301
0.0025                    0.0255                   309.00887310196475
0.0025                    0.0265                   309.576335894338
0.0025                    0.0275                   310.3030204950411
0.0025                    0.0285                   312.4640538004939
0.0025                    0.0295                   314.8849064169487
0.0025                    0.0305                   317.0129393998142
0.0025                    0.0315                   318.58899834211815
0.0035                    -0.0315                  343.49280777214324
0.0035                    -0.0305                  341.31469678312214
0.0035                    -0.0295                  339.2635437367561
0.0035                    -0.0285                  335.86108494486047
0.0035                    -0.0275                  331.89484350173564
0.0035                    -0.0265                  327.9519102528079
0.0035                    -0.0255                  324.23185429467947
0.0035                    -0.0245                  323.2778401082825
0.0035                    -0.0235                  322.016961611541
0.0035                    -0.0225                  320.5507240806024
0.0035                    -0.0215                  320.59326994493506
0.0035                    -0.0205                  320.2867281563984
0.0035                    -0.0195                  319.9203852559146
0.0035                    -0.0185                  320.66608690545894
0.0035                    -0.0175                  320.76972825782025
0.0035                    -0.0165                  320.8160960170141
0.0035                    -0.0155                  321.91791443607656
0.0035                    -0.0145                  322.1839257196777
0.0035                    -0.0135                  322.4032731310123
0.0035                    -0.0125                  323.30296486585246
0.0035                    -0.0115                  323.5165105616846
0.0035                    -0.0105                  323.61095376168845
0.0035                    -0.0095                  323.748419163261
0.0035                    -0.0085                  323.63538910047174
0.0035                    -0.0075                  323.1552189515878
0.0035                    -0.0065                  322.12202502322504
0.0035                    -0.0055                  321.3289076988953
0.0035                    -0.0045                  319.9876055328253
0.0035                    -0.0035                  317.9579621088237
0.0035                    -0.0025                  315.65160664195867
0.0035                    -0.0015                  313.2247959675385
0.0035                    -5.0E-4                  310.3977970996089
0.0035                    5.0E-4                   306.19615952669636
0.0035                    0.0015                   301.94700010319184
0.0035                    0.0025                   299.29733446535556
0.0035                    0.0035                   298.1573492673517
0.0035                    0.0045                   295.1963188486046
0.0035                    0.0055                   294.29602515536874
0.0035                    0.0065                   293.7324536385631
0.0035                    0.0075                   293.34396369609533
0.0035                    0.0085                   293.3573457106447
0.0035                    0.0095                   293.69096872022124
0.0035                    0.0105                   294.1538434862181
0.0035                    0.0115                   295.5454752349898
0.0035                    0.0125                   297.4161074006738
0.0035                    0.0135                   297.5628899831233
0.0035                    0.0145                   300.4124899932956
0.0035                    0.0155                   302.6935450877563
0.0035                    0.0165                   304.67644680807587
0.0035                    0.0175                   306.673889141736
0.0035                    0.0185                   308.7668755096999
0.0035                    0.0195                   310.17838165163494
0.0035                    0.0205                   311.18003512136556
0.0035                    0.0215                   311.90652686688895
0.0035                    0.0225                   311.7581131328403
0.0035                    0.0235                   311.8267325448764
0.0035                    0.0245                   311.5747329048944
0.0035                    0.0255                   311.00147771982313
0.0035                    0.0265                   311.56894051219643
0.0035                    0.0275                   311.3715192330857
0.0035                    0.0285                   312.13853026915166
0.0035                    0.0295                   314.0910380390644
0.0035                    0.0305                   316.1458679418772
0.0035                    0.0315                   317.87591744279086
0.0045                    -0.0315                  341.9001991757797
0.0045                    -0.0305                  339.45999012417445
0.0045                    -0.0295                  337.0110340403096
0.0045                    -0.0285                  333.13730668247797
0.0045                    -0.0275                  329.15256545248144
0.0045                    -0.0265                  325.16782422248485
0.0045                    -0.0255                  323.3578071514889
0.0045                    -0.0245                  322.4037929650919
0.0045                    -0.0235                  321.4497787786949
0.0045                    -0.0225                  321.06870658427647
0.0045                    -0.0215                  321.1112524486092
0.0045                    -0.0205                  321.1518028154419
0.0045                    -0.0195                  321.6134981783911
0.0045                    -0.0185                  322.3591998279355
0.0045                    -0.0175                  323.0363867181643
0.0045                    -0.0165                  323.9152638809001
0.0045                    -0.0155                  325.0170822999626
0.0045                    -0.0145                  325.9563888745559
0.0045                    -0.0135                  326.7482050274116
0.0045                    -0.0125                  327.64789676225166
0.0045                    -0.0115                  328.36334678629123
0.0045                    -0.0105                  328.4971919544914
0.0045                    -0.0095                  328.63465735606394
0.0045                    -0.0085                  328.6793185780417
0.0045                    -0.0075                  327.64612464967894
0.0045                    -0.0065                  326.61293072131616
0.0045                    -0.0055                  325.57426286961703
0.0045                    -0.0045                  323.56580286291626
0.0045                    -0.0035                  321.5573428562154
0.0045                    -0.0025                  319.36138771447196
0.0045                    -0.0015                  316.8574300504863
0.0045                    -5.0E-4                  314.3534723865005
0.0045                    5.0E-4                   310.7777590700514
0.0045                    0.0015                   306.5202637575821
0.0045                    0.0025                   302.2627684451127
0.0045                    0.0035                   299.5012376289227
0.0045                    0.0045                   296.5402072101756
0.0045                    0.0055                   294.59256187501967
0.0045                    0.0065                   294.03855676379555
0.0045                    0.0075                   293.45024248136383
0.0045                    0.0085                   293.5503259195759
0.0045                    0.0095                   293.975955977431
0.0045                    0.0105                   294.415667587311
0.0045                    0.0115                   296.7626647644908
0.0045                    0.0125                   299.1096619416706
0.0045                    0.0135                   301.46308453443515
0.0045                    0.0145                   304.318669910116
0.0045                    0.0155                   307.10251718620873
0.0045                    0.0165                   309.0988159998134
0.0045                    0.0175                   311.09625833347354
0.0045                    0.0185                   312.82332447375364
0.0045                    0.0195                   313.93637523010267
0.0045                    0.0205                   315.04942598645164
0.0045                    0.0215                   315.28062220153936
0.0045                    0.0225                   315.1322084674907
0.0045                    0.0235                   314.99372412647097
0.0045                    0.0245                   314.08383602067227
0.0045                    0.0255                   313.1642349472125
0.0045                    0.0265                   312.6935338150711
0.0045                    0.0275                   312.29958329544024
0.0045                    0.0285                   313.1460426697578
0.0045                    0.0295                   314.1180632975964
0.0045                    0.0305                   315.52594301233427
0.0045                    0.0315                   317.52117140695543
0.0055                    -0.0315                  340.3075905794161
0.0055                    -0.0305                  337.7992553208327
0.0055                    -0.0295                  335.2726321761526
0.0055                    -0.0285                  331.2618348296516
0.0055                    -0.0275                  327.27520838128873
0.0055                    -0.0265                  324.40998207263476
0.0055                    -0.0255                  323.4077074765052
0.0055                    -0.0245                  322.3801500384476
0.0055                    -0.0235                  321.81163455701244
0.0055                    -0.0225                  322.1730644388431
0.0055                    -0.0215                  322.21484720034164
0.0055                    -0.0205                  322.923624470904
0.0055                    -0.0195                  324.165439035963
0.0055                    -0.0185                  324.9057382506321
0.0055                    -0.0175                  326.19122690717666
0.0055                    -0.0165                  327.7029996986829
0.0055                    -0.0155                  328.7992967781943
0.0055                    -0.0145                  329.9460930355419
0.0055                    -0.0135                  330.98207134113574
0.0055                    -0.0125                  331.88237917533763
0.0055                    -0.0115                  332.25668854060433
0.0055                    -0.0105                  332.33754322796705
0.0055                    -0.0095                  332.4788293775848
0.0055                    -0.0085                  331.59984828321706
0.0055                    -0.0075                  330.44325063456574
0.0055                    -0.0065                  329.413785497328
0.0055                    -0.0055                  327.09211851202315
0.0055                    -0.0045                  324.8660627918025
0.0055                    -0.0035                  322.81192541753677
0.0055                    -0.0025                  319.505891261618
0.0055                    -0.0015                  316.78177717124026
0.0055                    -5.0E-4                  314.1723052616202
0.0055                    5.0E-4                   311.63579676584084
0.0055                    0.0015                   307.3559447362933
0.0055                    0.0025                   303.3048255487449
0.0055                    0.0035                   299.90508941173016
0.0055                    0.0045                   296.9530055498894
0.0055                    0.0055                   294.69794515253335
0.0055                    0.0065                   293.9121951867332
0.0055                    0.0075                   293.49959507751373
0.0055                    0.0085                   293.49741000983846
0.0055                    0.0095                   293.9230400676936
0.0055                    0.0105                   295.2525701182595
0.0055                    0.0115                   297.41659464109864
0.0055                    0.0125                   299.875511299096
0.0055                    0.0135                   303.0590256760852
0.0055                    0.0145                   305.9174595636132
0.0055                    0.0155                   307.97056219479447
0.0055                    0.0165                   309.6659734022742
0.0055                    0.0175                   311.63356336521053
0.0055                    0.0185                   313.5290329666778
0.0055                    0.0195                   314.730052769938
0.0055                    0.0205                   315.86819688710654
0.0055                    0.0215                   316.7406656416399
0.0055                    0.0225                   316.60751810057246
0.0055                    0.0235                   316.37089269251237
0.0055                    0.0245                   315.68062434730433
0.0055                    0.0255                   314.74497888910435
0.0055                    0.0265                   313.93826061250786
0.0055                    0.0275                   313.2276473577948
0.0055                    0.0285                   313.90863388260976
0.0055                    0.0295                   314.5121977703321
0.0055                    0.0305                   315.6804447826409
0.0055                    0.0315                   317.184877311857
0.0065                    -0.0315                  338.69682361550326
0.0065                    -0.0305                  336.0736355968062
0.0065                    -0.0295                  333.4183154472174
0.0065                    -0.0285                  329.40751810071635
0.0065                    -0.0275                  325.4454692160293
0.0065                    -0.0265                  324.4493257546446
0.0065                    -0.0255                  323.4531822932599
0.0065                    -0.0245                  322.4346128576262
0.0065                    -0.0235                  322.7556116528614
0.0065                    -0.0225                  323.2659156908696
0.0065                    -0.0215                  323.5793215016796
0.0065                    -0.0205                  325.16735345658105
0.0065                    -0.0195                  326.7553854114825
0.0065                    -0.0185                  327.8093901196176
0.0065                    -0.0175                  329.6809844296658
0.0065                    -0.0165                  331.552578739714
0.0065                    -0.0155                  332.7759473485682
0.0065                    -0.0145                  333.97002150793094
0.0065                    -0.0135                  335.16409566729385
0.0065                    -0.0125                  335.8961501840126
0.0065                    -0.0115                  335.8799398177687
0.0065                    -0.0105                  335.8652474946506
0.0065                    -0.0095                  335.57218460472285
0.0065                    -0.0085                  334.12340362409935
0.0065                    -0.0075                  332.71350586865117
0.0065                    -0.0065                  331.0598937856086
0.0065                    -0.0055                  328.2128531770294
0.0065                    -0.0045                  325.52003655674196
0.0065                    -0.0035                  322.7537409417904
0.0065                    -0.0025                  319.2479734623193
0.0065                    -0.0015                  316.03349220986814
0.0065                    -5.0E-4                  313.6057274559681
0.0065                    5.0E-4                   311.2629178934917
0.0065                    0.0015                   307.8002825239853
0.0065                    0.0025                   304.02057410836716
0.0065                    0.0035                   300.240865692749
0.0065                    0.0045                   297.6144972841001
0.0065                    0.0055                   295.45283045579214
0.0065                    0.0065                   293.7858336096708
0.0065                    0.0075                   293.67538083981844
0.0065                    0.0085                   293.62298763444807
0.0065                    0.0095                   294.2144359893575
0.0065                    0.0105                   296.0887388585022
0.0065                    0.0115                   298.01994433236075