% Model:              SIMBench260525粗网格.mph
% Version:            COMSOL 6.2.0.339
% Date:               May 27 2026, 19:56
% Dimension:          2
% Nodes:              4096
% Expressions:        1
% Description:        温度
% Length unit:        m
% x                       y                        T (K)
5.0E-4                    -0.0315                  311.1879041894815
5.0E-4                    -0.0305                  309.91979257696346
5.0E-4                    -0.0295                  308.65092745260506
5.0E-4                    -0.0285                  307.38206232824666
5.0E-4                    -0.0275                  306.11319720388826
5.0E-4                    -0.0265                  305.2746221518714
5.0E-4                    -0.0255                  304.45899955031484
5.0E-4                    -0.0245                  303.64337694875826
5.0E-4                    -0.0235                  302.82775434720173
5.0E-4                    -0.0225                  302.01213174564515
5.0E-4                    -0.0215                  301.5713745121108
5.0E-4                    -0.0205                  301.3362030034183
5.0E-4                    -0.0195                  301.09069608056404
5.0E-4                    -0.0185                  300.84518915770974
5.0E-4                    -0.0175                  300.5996822348554
5.0E-4                    -0.0165                  300.41242780140635
5.0E-4                    -0.0155                  300.25874655173504
5.0E-4                    -0.0145                  300.08797415886636
5.0E-4                    -0.0135                  299.9172017659977
5.0E-4                    -0.0125                  299.74642937312893
5.0E-4                    -0.0115                  299.58533168599706
5.0E-4                    -0.0105                  299.2147431931645
5.0E-4                    -0.0095                  298.6992700114207
5.0E-4                    -0.0085                  298.18379682967696
5.0E-4                    -0.0075                  297.66832364793316
5.0E-4                    -0.0065                  297.17194114165517
5.0E-4                    -0.0055                  296.70604206953124
5.0E-4                    -0.0045                  296.10819985637283
5.0E-4                    -0.0035                  295.5103576432145
5.0E-4                    -0.0025                  294.9125154300561
5.0E-4                    -0.0015                  294.31467321689775
5.0E-4                    -5.0E-4                  293.95959894537407
5.0E-4                    5.0E-4                   293.9702633020951
5.0E-4                    0.0015                   293.9809276588162
5.0E-4                    0.0025                   293.9915920155372
5.0E-4                    0.0035                   294.00225637225833
5.0E-4                    0.0045                   293.6849178696031
5.0E-4                    0.0055                   293.53922110152206
5.0E-4                    0.0065                   293.39352433344106
5.0E-4                    0.0075                   293.24782756535996
5.0E-4                    0.0085                   293.1749535772664
5.0E-4                    0.0095                   293.2233613883372
5.0E-4                    0.0105                   293.271769199408
5.0E-4                    0.0115                   293.32017701047886
5.0E-4                    0.0125                   293.42976953013203
5.0E-4                    0.0135                   293.376259188826
5.0E-4                    0.0145                   293.32274884751996
5.0E-4                    0.0155                   293.269238506214
5.0E-4                    0.0165                   293.215728164908
5.0E-4                    0.0175                   293.3165144003476
5.0E-4                    0.0185                   293.2221951372792
5.0E-4                    0.0195                   293.12787587421076
5.0E-4                    0.0205                   293.03355661114233
5.0E-4                    0.0215                   292.93923734807385
5.0E-4                    0.0225                   293.0417826491901
5.0E-4                    0.0235                   293.0810612387055
5.0E-4                    0.0245                   293.1203398282209
5.0E-4                    0.0255                   293.1596184177363
5.0E-4                    0.0265                   293.1988970072516
5.0E-4                    0.0275                   293.4738541572369
5.0E-4                    0.0285                   294.0110227286135
5.0E-4                    0.0295                   294.5481912999902
5.0E-4                    0.0305                   295.08535987136685
5.0E-4                    0.0315                   295.6177701229755
0.0015                    -0.0315                  310.2576474259209
0.0015                    -0.0305                  309.04415658409937
0.0015                    -0.0295                  307.7775519952622
0.0015                    -0.0285                  306.5086868709038
0.0015                    -0.0275                  305.2892543996798
0.0015                    -0.0265                  304.7470376105621
0.0015                    -0.0255                  304.122459578511
0.0015                    -0.0245                  303.3068369769544
0.0015                    -0.0235                  302.4912143753978
0.0015                    -0.0225                  301.8048245889022
0.0015                    -0.0215                  301.68595628964965
0.0015                    -0.0205                  301.52572930511
0.0015                    -0.0195                  301.2802223822557
0.0015                    -0.0185                  301.03471545940147
0.0015                    -0.0175                  300.7937088216096
0.0015                    -0.0165                  300.6971769340143
0.0015                    -0.0155                  300.5882837572057
0.0015                    -0.0145                  300.417511364337
0.0015                    -0.0135                  300.24673897146823
0.0015                    -0.0125                  300.07596657859955
0.0015                    -0.0115                  299.9399181847832
0.0015                    -0.0105                  299.8041562180922
0.0015                    -0.0095                  299.2886830363484
0.0015                    -0.0085                  298.7732098546046
0.0015                    -0.0075                  298.2577366728608
0.0015                    -0.0065                  297.87457918869745
0.0015                    -0.0055                  297.53420790638074
0.0015                    -0.0045                  296.9643795008376
0.0015                    -0.0035                  296.36653728767925
0.0015                    -0.0025                  295.7686950745209
0.0015                    -0.0015                  295.17480017604834
0.0015                    -5.0E-4                  294.5826364782006
0.0015                    5.0E-4                   294.5296132399842
0.0015                    0.0015                   294.5402775967052
0.0015                    0.0025                   294.5509419534263
0.0015                    0.0035                   294.161625475064
0.0015                    0.0045                   293.7446232135419
0.0015                    0.0055                   293.59892644546085
0.0015                    0.0065                   293.4532296773798
0.0015                    0.0075                   293.26538972336647
0.0015                    0.0085                   293.19038605430694
0.0015                    0.0095                   293.234607713099
0.0015                    0.0105                   293.28301552416985
0.0015                    0.0115                   293.3481462367922
0.0015                    0.0125                   293.5540552324172
0.0015                    0.0135                   293.61179308312944
0.0015                    0.0145                   293.5582827418234
0.0015                    0.0155                   293.5047724005174
0.0015                    0.0165                   293.5773755605846
0.0015                    0.0175                   293.78353294986357
0.0015                    0.0185                   293.8071311068364
0.0015                    0.0195                   293.7128118437679
0.0015                    0.0205                   293.6184925806995
0.0015                    0.0215                   293.66304402217736
0.0015                    0.0225                   293.8358166077634
0.0015                    0.0235                   293.92612848404826
0.0015                    0.0245                   293.9654070735636
0.0015                    0.0255                   294.004685663079
0.0015                    0.0265                   294.1374213762039
0.0015                    0.0275                   294.342288187363
0.0015                    0.0285                   294.82955711303464
0.0015                    0.0295                   295.3667256844113
0.0015                    0.0305                   295.8896192964841
0.0015                    0.0315                   296.0451972981035
0.0025                    -0.0315                  309.32739066236024
0.0025                    -0.0305                  308.1138998205388
0.0025                    -0.0295                  306.9004089787172
0.0025                    -0.0285                  305.63531141356094
0.0025                    -0.0275                  304.7602547595297
0.0025                    -0.0265                  304.21803797041196
0.0025                    -0.0255                  303.67582118129417
0.0025                    -0.0245                  302.9702970051505
0.0025                    -0.0235                  302.1546744035939
0.0025                    -0.0225                  301.91940636644097
0.0025                    -0.0215                  301.8005380671885
0.0025                    -0.0205                  301.68166976793594
0.0025                    -0.0195                  301.4697486839475
0.0025                    -0.0185                  301.22424176109325
0.0025                    -0.0175                  301.0784579542176
0.0025                    -0.0165                  300.98192606662235
0.0025                    -0.0155                  300.8853941790271
0.0025                    -0.0145                  300.7470485698076
0.0025                    -0.0135                  300.57627617693885
0.0025                    -0.0125                  300.42537790354595
0.0025                    -0.0115                  300.29450468356924
0.0025                    -0.0105                  300.16363146359254
0.0025                    -0.0095                  299.87809606127604
0.0025                    -0.0085                  299.3626228795322
0.0025                    -0.0075                  298.91758851805645
0.0025                    -0.0065                  298.57721723573974
0.0025                    -0.0055                  298.2368459534231
0.0025                    -0.0045                  297.82055914530235
0.0025                    -0.0035                  297.222716932144
0.0025                    -0.0025                  296.6271270889396
0.0025                    -0.0015                  296.0349633910919
0.0025                    -5.0E-4                  295.4427996932442
0.0025                    5.0E-4                   295.08896317787327
0.0025                    0.0015                   295.0996275345943
0.0025                    0.0025                   294.77433233423807
0.0025                    0.0035                   294.2889839388667
0.0025                    0.0045                   293.8043285574807
0.0025                    0.0055                   293.65863178939964
0.0025                    0.0065                   293.47787372173343
0.0025                    0.0075                   293.2794109381993
0.0025                    0.0085                   293.206022924235
0.0025                    0.0095                   293.2496314043649
0.0025                    0.0105                   293.2942618489316
0.0025                    0.0115                   293.4230415574399
0.0025                    0.0125                   293.6289505530649
0.0025                    0.0135                   293.83485954868985
0.0025                    0.0145                   293.79381663612685
0.0025                    0.0155                   293.7773836433861
0.0025                    0.0165                   293.98354103266513
0.0025                    0.0175                   294.1896984219441
0.0025                    0.0185                   294.3920670763935
0.0025                    0.0195                   294.2977478133251
0.0025                    0.0205                   294.25681849206416
0.0025                    0.0215                   294.42959107765023
0.0025                    0.0225                   294.60236366323625
0.0025                    0.0235                   294.77119572939097
0.0025                    0.0245                   294.81047431890636
0.0025                    0.0255                   294.89512263334177
0.0025                    0.0265                   295.0999894445009
0.0025                    0.0275                   295.30485625566
0.0025                    0.0285                   295.64809149745577
0.0025                    0.0295                   296.1614684699927
0.0025                    0.0305                   296.31704647161206
0.0025                    0.0315                   296.47262447323146
0.0035                    -0.0315                  308.39713389879967
0.0035                    -0.0305                  307.18364305697816
0.0035                    -0.0295                  305.97015221515665
0.0035                    -0.0285                  304.8090848908868
0.0035                    -0.0275                  304.23125511937957
0.0035                    -0.0265                  303.68903833026184
0.0035                    -0.0255                  303.1468215411441
0.0035                    -0.0245                  302.6046047520264
0.0035                    -0.0235                  302.1528564432324
0.0035                    -0.0225                  302.03398814397985
0.0035                    -0.0215                  301.9151198447273
0.0035                    -0.0205                  301.7962515454748
0.0035                    -0.0195                  301.6592749856393
0.0035                    -0.0185                  301.4597389744208
0.0035                    -0.0175                  301.3632070868256
0.0035                    -0.0165                  301.26667519923035
0.0035                    -0.0155                  301.1701433116351
0.0035                    -0.0145                  301.0736114240399
0.0035                    -0.0135                  300.91083762230875
0.0035                    -0.0125                  300.7799644023321
0.0035                    -0.0115                  300.6490911823554
0.0035                    -0.0105                  300.5182179623787
0.0035                    -0.0095                  300.387344742402
0.0035                    -0.0085                  299.96059784741544
0.0035                    -0.0075                  299.62022656509873
0.0035                    -0.0065                  299.2798552827821
0.0035                    -0.0055                  298.9394840004653
0.0035                    -0.0045                  298.5991127181486
0.0035                    -0.0035                  298.07945400183087
0.0035                    -0.0025                  297.48729030398323
0.0035                    -0.0015                  296.89512660613553
0.0035                    -5.0E-4                  296.3029629082878
0.0035                    5.0E-4                   295.7107992104401
0.0035                    0.0015                   295.3870391934121
0.0035                    0.0025                   294.9016907980407
0.0035                    0.0035                   294.41634240266944
0.0035                    0.0045                   293.93099400729807
0.0035                    0.0055                   293.6903577201005
0.0035                    0.0065                   293.4918949365664
0.0035                    0.0075                   293.2934321530322
0.0035                    0.0085                   293.221659794163
0.0035                    0.0095                   293.26526827429285
0.0035                    0.0105                   293.3160701594139
0.0035                    0.0115                   293.4862261869156
0.0035                    0.0125                   293.7018706670973
0.0035                    0.0135                   293.9097548693375
0.0035                    0.0145                   294.02935053043024
0.0035                    0.0155                   294.18354911546663
0.0035                    0.0165                   294.3897065047456
0.0035                    0.0175                   294.59586389402466
0.0035                    0.0185                   294.8020212833037
0.0035                    0.0195                   294.8826837828823
0.0035                    0.0205                   295.02336554753697
0.0035                    0.0215                   295.1961381331231
0.0035                    0.0225                   295.3689107187091
0.0035                    0.0235                   295.54168330429525
0.0035                    0.0245                   295.65554156424906
0.0035                    0.0255                   295.8576907016387
0.0035                    0.0265                   296.06255751279787
0.0035                    0.0275                   296.267424323957
0.0035                    0.0285                   296.4310888343278
0.0035                    0.0295                   296.58889564512066
0.0035                    0.0305                   296.74447364674006
0.0035                    0.0315                   296.90005164835947
0.0045                    -0.0315                  307.466877135239
0.0045                    -0.0305                  306.2533862934175
0.0045                    -0.0295                  305.4697341885141
0.0045                    -0.0285                  304.7028541985267
0.0045                    -0.0275                  304.073667388361
0.0045                    -0.0265                  303.4982653300831
0.0045                    -0.0255                  302.9228632718052
0.0045                    -0.0245                  302.4481618421155
0.0045                    -0.0235                  302.3462429305863
0.0045                    -0.0225                  302.2181364408765
0.0045                    -0.0215                  302.09002995116674
0.0045                    -0.0205                  301.961923461457
0.0045                    -0.0195                  301.8338169717472
0.0045                    -0.0185                  301.7501398611727
0.0045                    -0.0175                  301.65360927576876
0.0045                    -0.0165                  301.55707869036485
0.0045                    -0.0155                  301.4605481049609
0.0045                    -0.0145                  301.3640175195569
0.0045                    -0.0135                  301.2058819818625
0.0045                    -0.0125                  301.0719702038356
0.0045                    -0.0115                  300.9380584258088
0.0045                    -0.0105                  300.8041466477819
0.0045                    -0.0095                  300.67023486975506
0.0045                    -0.0085                  300.4145471566982
0.0045                    -0.0075                  300.05903302459416
0.0045                    -0.0065                  299.7035188924901
0.0045                    -0.0055                  299.348004760386
0.0045                    -0.0045                  298.992490628282
0.0045                    -0.0035                  298.64324514657835
0.0045                    -0.0025                  298.02721655750656
0.0045                    -0.0015                  297.41118796843483
0.0045                    -5.0E-4                  296.79515937936304
0.0045                    5.0E-4                   296.17080995170966
0.0045                    0.0015                   295.5855288139783
0.0045                    0.0025                   295.10013592400935
0.0045                    0.0035                   294.61474303404026
0.0045                    0.0045                   294.0578151968877
0.0045                    0.0055                   293.6926751938938
0.0045                    0.0065                   293.5033858168362
0.0045                    0.0075                   293.3074533678651
0.0045                    0.0085                   293.237296664091
0.0045                    0.0095                   293.29632934759695
0.0045                    0.0105                   293.35729577425934
0.0045                    0.0115                   293.52094189459706
0.0045                    0.0125                   293.7365863747787
0.0045                    0.0135                   293.9566281506416
0.0045                    0.0145                   294.2985199006038
0.0045                    0.0155                   294.6151590875291
0.0045                    0.0165                   294.82127744551354
0.0045                    0.0175                   295.0273958034979
0.0045                    0.0185                   295.2335141614823
0.0045                    0.0195                   295.46582159760175
0.0045                    0.0205                   295.64887015563477
0.0045                    0.0215                   295.81831809845585
0.0045                    0.0225                   295.98776604127704
0.0045                    0.0235                   296.1572139840982
0.0045                    0.0245                   296.2492537294306
0.0045                    0.0255                   296.37526091389196
0.0045                    0.0265                   296.52212757749635
0.0045                    0.0275                   296.6689942411007
0.0045                    0.0285                   296.823676964185
0.0045                    0.0295                   296.99814079213866
0.0045                    0.0305                   297.17190082186806
0.0045                    0.0315                   297.32747882348747
0.0055                    -0.0315                  306.8972634761288
0.0055                    -0.0305                  306.13038348614145
0.0055                    -0.0295                  305.363503496154
0.0055                    -0.0285                  304.5966235061666
0.0055                    -0.0275                  303.92078372253934
0.0055                    -0.0265                  303.3453816642615
0.0055                    -0.0255                  302.7699796059836
0.0055                    -0.0245                  302.66506642202296
0.0055                    -0.0235                  302.5747886663173
0.0055                    -0.0225                  302.45522579006587
0.0055                    -0.0215                  302.32711930035606
0.0055                    -0.0205                  302.1990128106463
0.0055                    -0.0195                  302.1101649169398
0.0055                    -0.0185                  302.05030419890164
0.0055                    -0.0175                  301.9558987043489
0.0055                    -0.0165                  301.8593681189449
0.0055                    -0.0155                  301.76283753354096
0.0055                    -0.0145                  301.6227070267981
0.0055                    -0.0135                  301.40394260403156
0.0055                    -0.0125                  301.24714905818075
0.0055                    -0.0115                  301.11323728015395
0.0055                    -0.0105                  300.97932550212704
0.0055                    -0.0095                  300.7989146748512
0.0055                    -0.0085                  300.49974760421736
0.0055                    -0.0075                  300.16996971763285
0.0055                    -0.0065                  299.81445558552883
0.0055                    -0.0055                  299.45894145342476
0.0055                    -0.0045                  299.11864297454406
0.0055                    -0.0035                  298.80637577071496
0.0055                    -0.0025                  298.35469428564033
0.0055                    -0.0015                  297.73866569656855
0.0055                    -5.0E-4                  297.1226371074968
0.0055                    5.0E-4                   296.4724325266051
0.0055                    0.0015                   295.8088250616339
0.0055                    0.0025                   295.32290286235224
0.0055                    0.0035                   294.82169114637907
0.0055                    0.0045                   294.1084511183153
0.0055                    0.0055                   293.68169607816816
0.0055                    0.0065                   293.4924067011106
0.0055                    0.0075                   293.30311732405306
0.0055                    0.0085                   293.25820636134
0.0055                    0.0095                   293.334340806382
0.0055                    0.0105                   293.39852138910476
0.0055                    0.0115                   293.5556576022786
0.0055                    0.0125                   293.80453840667946
0.0055                    0.0135                   294.05631750344764
0.0055                    0.0145                   294.50648850205096
0.0055                    0.0155                   295.0650747482931
0.0055                    0.0165                   295.2711931062775
0.0055                    0.0175                   295.47731146426185
0.0055                    0.0185                   295.6893458259331
0.0055                    0.0195                   295.9463609781329
0.0055                    0.0205                   296.17817807117046
0.0055                    0.0215                   296.34762601399154
0.0055                    0.0225                   296.5170739568127
0.0055                    0.0235                   296.6390726924892
0.0055                    0.0245                   296.6986649964522
0.0055                    0.0255                   296.76091439323534
0.0055                    0.0265                   296.9077810568397
0.0055                    0.0275                   297.0546477204441
0.0055                    0.0285                   297.21626509404217
0.0055                    0.0295                   297.3907289219958
0.0055                    0.0305                   297.56519274994946
0.0055                    0.0315                   297.7396565779032
0.0065                    -0.0315                  306.78063752809965
0.0065                    -0.0305                  306.02053775842677
0.0065                    -0.0295                  305.25727280379397
0.0065                    -0.0285                  304.49039281380647
0.0065                    -0.0275                  303.76790005671774
0.0065                    -0.0265                  303.1924979984399
0.0065                    -0.0255                  302.972248757636
0.0065                    -0.0245                  302.8819710019304
0.0065                    -0.0235                  302.7916932462248
0.0065                    -0.0225                  302.6923151392552
0.0065                    -0.0215                  302.56420864954544
0.0065                    -0.0205                  302.45013278365275
0.0065                    -0.0195                  302.39027206561457
0.0065                    -0.0185                  302.3304113475764
0.0065                    -0.0175                  302.258188132929
0.0065                    -0.0165                  302.161657547525
0.0065                    -0.0155                  302.06512696212104
0.0065                    -0.0145                  301.8505539116228
0.0065                    -0.0135                  301.63178948885627
0.0065                    -0.0125                  301.4223279125259
0.0065                    -0.0115                  301.288416134499
0.0065                    -0.0105                  301.1545043564723
0.0065                    -0.0095                  300.87436130082125
0.0065                    -0.0085                  300.57519423018744
0.0065                    -0.0075                  300.27602715955356
0.0065                    -0.0065                  299.92539227856753
0.0065                    -0.0055                  299.5698781464635
0.0065                    -0.0045                  299.25571658684254
0.0065                    -0.0035                  298.94344938301344
0.0065                    -0.0025                  298.6311821791844
0.0065                    -0.0015                  298.0661434247023
0.0065                    -5.0E-4                  297.43766256647166
0.0065                    5.0E-4                   296.7740551015005
0.0065                    0.0015                   296.1104476365294
0.0065                    0.0025                   295.5456698006952
0.0065                    0.0035                   294.87232706780674
0.0065                    0.0045                   294.159087039743
0.0065                    0.0055                   293.6707169624425
0.0065                    0.0065                   293.48142758538495
0.0065                    0.0075                   293.3496664731765
0.0065                    0.0085                   293.2524152482088
0.0065                    0.0095                   293.32854969325086
0.0065                    0.0105                   293.40903586348446
0.0065                    0.0115                   293.6524486627173