% Model:              SIMBench260525.mph
% Version:            COMSOL 6.2.0.339
% Date:               May 27 2026, 17:35
% Dimension:          2
% Nodes:              4096
% Expressions:        1
% Description:        温度
% Length unit:        m
% x                       y                        T (K)
5.0E-4                    -0.0315                  380.3786543063619
5.0E-4                    -0.0305                  379.91529410843816
5.0E-4                    -0.0295                  379.4412337961097
5.0E-4                    -0.0285                  378.84442393928555
5.0E-4                    -0.0275                  378.21341231105765
5.0E-4                    -0.0265                  377.5588112352156
5.0E-4                    -0.0255                  376.1025840836239
5.0E-4                    -0.0245                  374.0012356299755
5.0E-4                    -0.0235                  371.4115141253678
5.0E-4                    -0.0225                  365.98442023592884
5.0E-4                    -0.0215                  359.9595939704408
5.0E-4                    -0.0205                  352.70444759404484
5.0E-4                    -0.0195                  344.1257404594763
5.0E-4                    -0.0185                  336.13202609129996
5.0E-4                    -0.0175                  329.36313267812034
5.0E-4                    -0.0165                  324.68467860238934
5.0E-4                    -0.0155                  320.1160406081314
5.0E-4                    -0.0145                  317.4596087589152
5.0E-4                    -0.0135                  315.63254888862224
5.0E-4                    -0.0125                  313.76870392323326
5.0E-4                    -0.0115                  312.88103248028
5.0E-4                    -0.0105                  311.9008285954252
5.0E-4                    -0.0095                  310.92062471057045
5.0E-4                    -0.0085                  310.5015281707232
5.0E-4                    -0.0075                  309.6811893494072
5.0E-4                    -0.0065                  308.8608505280911
5.0E-4                    -0.0055                  308.6153241157948
5.0E-4                    -0.0045                  307.9928324372494
5.0E-4                    -0.0035                  307.4081164246874
5.0E-4                    -0.0025                  307.22514112711684
5.0E-4                    -0.0015                  306.7096693191219
5.0E-4                    -5.0E-4                  306.2716532988049
5.0E-4                    5.0E-4                   305.8159645740004
5.0E-4                    0.0015                   305.0796972986492
5.0E-4                    0.0025                   304.38312266237773
5.0E-4                    0.0035                   303.10104094359144
5.0E-4                    0.0045                   301.5274162678261
5.0E-4                    0.0055                   299.83518172333106
5.0E-4                    0.0065                   298.19723519981096
5.0E-4                    0.0075                   296.6032069588283
5.0E-4                    0.0085                   294.23320489847
5.0E-4                    0.0095                   293.898402368461
5.0E-4                    0.0105                   293.69944993690393
5.0E-4                    0.0115                   293.51677415979583
5.0E-4                    0.0125                   293.5867510221451
5.0E-4                    0.0135                   293.65672788449433
5.0E-4                    0.0145                   293.3075762602063
5.0E-4                    0.0155                   293.211295351341
5.0E-4                    0.0165                   293.1879050283508
5.0E-4                    0.0175                   293.23603073496076
5.0E-4                    0.0185                   293.3775218321092
5.0E-4                    0.0195                   293.33260617143196
5.0E-4                    0.0205                   293.2876905107547
5.0E-4                    0.0215                   293.2928831326987
5.0E-4                    0.0225                   293.31848931319394
5.0E-4                    0.0235                   293.5318078834283
5.0E-4                    0.0245                   294.27227929432354
5.0E-4                    0.0255                   294.9045883006836
5.0E-4                    0.0265                   296.2343384338039
5.0E-4                    0.0275                   299.6423766900408
5.0E-4                    0.0285                   303.27997378067323
5.0E-4                    0.0295                   306.2038377057086
5.0E-4                    0.0305                   308.6252940102694
5.0E-4                    0.0315                   311.04675031483026
0.0015                    -0.0315                  378.28226747886725
0.0015                    -0.0305                  378.33257935965247
0.0015                    -0.0295                  377.8440841542656
0.0015                    -0.0285                  377.23455256707496
0.0015                    -0.0275                  376.6134879613691
0.0015                    -0.0265                  375.7458480608058
0.0015                    -0.0255                  374.78311657359177
0.0015                    -0.0245                  372.9092065764619
0.0015                    -0.0235                  368.7118204403681
0.0015                    -0.0225                  364.08679786845
0.0015                    -0.0215                  358.10541411414687
0.0015                    -0.0205                  348.38962751593505
0.0015                    -0.0195                  338.64093484858194
0.0015                    -0.0185                  330.82117480536743
0.0015                    -0.0175                  325.62786726921354
0.0015                    -0.0165                  320.5736136450626
0.0015                    -0.0155                  316.621515987297
0.0015                    -0.0145                  315.46626339212764
0.0015                    -0.0135                  314.06706989713655
0.0015                    -0.0125                  312.6436858351053
0.0015                    -0.0115                  312.27799270933303
0.0015                    -0.0105                  311.6249658384104
0.0015                    -0.0095                  311.0053647878576
0.0015                    -0.0085                  310.8971188648022
0.0015                    -0.0075                  310.3676762188686
0.0015                    -0.0065                  309.99899653370625
0.0015                    -0.0055                  310.02097665075615
0.0015                    -0.0045                  309.58163519628727
0.0015                    -0.0035                  309.42654670896223
0.0015                    -0.0025                  309.51220741695715
0.0015                    -0.0015                  309.0925263662507
0.0015                    -5.0E-4                  308.91808386069334
0.0015                    5.0E-4                   308.83725981031336
0.0015                    0.0015                   308.12342415538814
0.0015                    0.0025                   307.5062347972759
0.0015                    0.0035                   306.8072389924479
0.0015                    0.0045                   305.21829762801605
0.0015                    0.0055                   303.37226261823264
0.0015                    0.0065                   301.58347783743733
0.0015                    0.0075                   299.6845032439702
0.0015                    0.0085                   296.74182493255915
0.0015                    0.0095                   294.76345926571935
0.0015                    0.0105                   294.5404901652072
0.0015                    0.0115                   294.2903510889594
0.0015                    0.0125                   294.2826642578718
0.0015                    0.0135                   293.8125751954302
0.0015                    0.0145                   293.40963268892824
0.0015                    0.0155                   293.2352093850077
0.0015                    0.0165                   293.2089673740333
0.0015                    0.0175                   293.2943665902504
0.0015                    0.0185                   293.5075380953171
0.0015                    0.0195                   293.6334406654786
0.0015                    0.0205                   293.6058471655887
0.0015                    0.0215                   293.6009008831572
0.0015                    0.0225                   293.6208097948416
0.0015                    0.0235                   294.3913521434921
0.0015                    0.0245                   295.2876899296932
0.0015                    0.0255                   296.12304975623067
0.0015                    0.0265                   298.32975256267673
0.0015                    0.0275                   300.9924942932856
0.0015                    0.0285                   304.44745374652985
0.0015                    0.0295                   306.8600491264185
0.0015                    0.0305                   309.2776297539632
0.0015                    0.0315                   311.1056433555545
0.0025                    -0.0315                  376.1858806513726
0.0025                    -0.0305                  375.6024272085525
0.0025                    -0.0295                  374.92698533759926
0.0025                    -0.0285                  374.5179004560431
0.0025                    -0.0275                  373.96010598381963
0.0025                    -0.0265                  373.14128631359574
0.0025                    -0.0255                  372.31581278568564
0.0025                    -0.0245                  369.91745485231286
0.0025                    -0.0235                  365.367536895266
0.0025                    -0.0225                  360.8176189382192
0.0025                    -0.0215                  353.3870115110538
0.0025                    -0.0205                  343.4656957421271
0.0025                    -0.0195                  333.54437997320025
0.0025                    -0.0185                  327.08285256921386
0.0025                    -0.0175                  321.88961057053973
0.0025                    -0.0165                  316.69636857186555
0.0025                    -0.0155                  314.86178235671605
0.0025                    -0.0145                  313.70056014208365
0.0025                    -0.0135                  312.53933792745124
0.0025                    -0.0125                  312.17927435682327
0.0025                    -0.0115                  311.81128206167625
0.0025                    -0.0105                  311.463984398991
0.0025                    -0.0095                  311.4446075385209
0.0025                    -0.0085                  311.33556489329385
0.0025                    -0.0075                  311.3507445983239
0.0025                    -0.0065                  311.3828424000328
0.0025                    -0.0055                  311.404499202574
0.0025                    -0.0045                  311.5196776992439
0.0025                    -0.0035                  311.60519397011564
0.0025                    -0.0025                  311.6907102409873
0.0025                    -0.0015                  311.7265954625781
0.0025                    -5.0E-4                  311.6458427873878
0.0025                    5.0E-4                   311.56509011219737
0.0025                    0.0015                   311.2056921190937
0.0025                    0.0025                   310.5987562125723
0.0025                    0.0035                   309.99182030605095
0.0025                    0.0045                   308.67590860588155
0.0025                    0.0055                   306.8211995955426
0.0025                    0.0065                   304.96649058520376
0.0025                    0.0075                   302.54264124290006
0.0025                    0.0085                   299.67287411241307
0.0025                    0.0095                   296.7535173524869
0.0025                    0.0105                   295.9220371111646
0.0025                    0.0115                   295.66472328517386
0.0025                    0.0125                   294.50903697124727
0.0025                    0.0135                   293.94041833757444
0.0025                    0.0145                   293.5116891176501
0.0025                    0.0155                   293.3042014832979
0.0025                    0.0165                   293.2571784776061
0.0025                    0.0175                   293.35270244554
0.0025                    0.0185                   293.5900673702099
0.0025                    0.0195                   293.8669635957535
0.0025                    0.0205                   294.09276483353057
0.0025                    0.0215                   294.1034402382003
0.0025                    0.0225                   294.65374526761633
0.0025                    0.0235                   295.5849161261315
0.0025                    0.0245                   296.51608698464656
0.0025                    0.0255                   298.3746488415978
0.0025                    0.0265                   300.46408278757576
0.0025                    0.0275                   302.6318694979957
0.0025                    0.0285                   305.08920579015125
0.0025                    0.0295                   307.46842423640794
0.0025                    0.0305                   309.531225064848
0.0025                    0.0315                   311.1384148507235
0.0035                    -0.0315                  372.6904948417607
0.0035                    -0.0305                  371.77458680112215
0.0035                    -0.0295                  370.9968292928404
0.0035                    -0.0285                  370.51849270480693
0.0035                    -0.0275                  369.7472401804762
0.0035                    -0.0265                  368.9587894682166
0.0035                    -0.0255                  367.716717738129
0.0035                    -0.0245                  363.8198102836302
0.0035                    -0.0235                  359.52512725131453
0.0035                    -0.0225                  354.10083543737244
0.0035                    -0.0215                  345.103362152489
0.0035                    -0.0205                  335.40398704442987
0.0035                    -0.0195                  327.30690608011935
0.0035                    -0.0185                  323.209032726581
0.0035                    -0.0175                  318.1346152412515
0.0035                    -0.0165                  314.94901154108936
0.0035                    -0.0155                  314.48287451566546
0.0035                    -0.0145                  313.321652301033
0.0035                    -0.0135                  312.8322980599409
0.0035                    -0.0125                  312.8861249270906
0.0035                    -0.0115                  312.51813263194356
0.0035                    -0.0105                  312.7265797980965
0.0035                    -0.0095                  313.10234260425705
0.0035                    -0.0085                  312.99329995903
0.0035                    -0.0075                  313.5338146534366
0.0035                    -0.0065                  314.0105194443617
0.0035                    -0.0055                  314.03217624690296
0.0035                    -0.0045                  314.5354070611881
0.0035                    -0.0035                  314.8623699246747
0.0035                    -0.0025                  314.9478861955463
0.0035                    -0.0015                  314.96558504035534
0.0035                    -5.0E-4                  314.9213102917562
0.0035                    5.0E-4                   314.7691469757475
0.0035                    0.0015                   314.11964407468395
0.0035                    0.0025                   313.5025292086768
0.0035                    0.0035                   312.75263528156563
0.0035                    0.0045                   311.64836243342637
0.0035                    0.0055                   309.85998551748264
0.0035                    0.0065                   308.1524762042268
0.0035                    0.0075                   306.5360296415427
0.0035                    0.0085                   303.6662625110557
0.0035                    0.0095                   300.5559274328739
0.0035                    0.0105                   298.41896060600465
0.0035                    0.0115                   297.5695096556202
0.0035                    0.0125                   294.8788078834201
0.0035                    0.0135                   294.1351126218573
0.0035                    0.0145                   293.65604912377194
0.0035                    0.0155                   293.3215595345489
0.0035                    0.0165                   293.2866285712141
0.0035                    0.0175                   293.4812646085633
0.0035                    0.0185                   293.7433596431615
0.0035                    0.0195                   294.52504864424077
0.0035                    0.0205                   295.518014632151
0.0035                    0.0215                   295.53022440508477
0.0035                    0.0225                   297.23936815651916
0.0035                    0.0235                   298.38570406051537
0.0035                    0.0245                   299.80730467302635
0.0035                    0.0255                   301.8725713185253
0.0035                    0.0265                   303.9620052645033
0.0035                    0.0275                   304.49828548529206
0.0035                    0.0285                   305.86900442371063
0.0035                    0.0295                   307.98885038912147
0.0035                    0.0305                   309.966893361936
0.0035                    0.0315                   311.49043052761795
0.0045                    -0.0315                  369.10781418912836
0.0045                    -0.0305                  368.1166571717509
0.0045                    -0.0295                  367.12800953835426
0.0045                    -0.0285                  366.30301517026066
0.0045                    -0.0275                  365.5321076849473
0.0045                    -0.0265                  364.7612001996339
0.0045                    -0.0255                  361.5005679102534
0.0045                    -0.0245                  357.6036604557546
0.0045                    -0.0235                  353.6827176073631
0.0045                    -0.0225                  345.4801909294006
0.0045                    -0.0215                  336.48271764451715
0.0045                    -0.0205                  327.34227834673277
0.0045                    -0.0195                  322.89166747090746
0.0045                    -0.0185                  318.793794117369
0.0045                    -0.0175                  314.59862707428664
0.0045                    -0.0165                  314.14279035086224
0.0045                    -0.0155                  313.6869536274378
0.0045                    -0.0145                  313.1243776582207
0.0045                    -0.0135                  313.24399433649666
0.0045                    -0.0125                  313.36361101477263
0.0045                    -0.0115                  313.44604561918914
0.0045                    -0.0105                  313.98917519720203
0.0045                    -0.0095                  314.53230477521487
0.0045                    -0.0085                  314.96163519840843
0.0045                    -0.0075                  315.7168847085494
0.0045                    -0.0065                  316.47213421869037
0.0045                    -0.0055                  316.9253271051896
0.0045                    -0.0045                  317.4977045861839
0.0045                    -0.0035                  318.0700820671781
0.0045                    -0.0025                  318.16383778019934
0.0045                    -0.0015                  318.18149335312245
0.0045                    -5.0E-4                  318.1967777961246
0.0045                    5.0E-4                   317.69844326318986
0.0045                    0.0015                   317.04894036212636
0.0045                    0.0025                   316.4063022047813
0.0045                    0.0035                   315.3521595009904
0.0045                    0.0045                   314.2478866528512
0.0045                    0.0055                   312.93640557719027
0.0045                    0.0065                   311.3760537146693
0.0045                    0.0075                   309.8157018521484
0.0045                    0.0085                   307.5421475985703
0.0045                    0.0095                   304.35833751326084
0.0045                    0.0105                   301.17452742795143
0.0045                    0.0115                   298.6640283176723
0.0045                    0.0125                   295.9733265454723
0.0045                    0.0135                   294.36876983893984
0.0045                    0.0145                   293.91799462767796
0.0045                    0.0155                   293.4336354052127
0.0045                    0.0165                   293.4021451076727
0.0045                    0.0175                   293.6583995871775
0.0045                    0.0185                   293.92865294827664
0.0045                    0.0195                   295.2558218064253
0.0045                    0.0205                   296.5829906645739
0.0045                    0.0215                   297.93210169971144
0.0045                    0.0225                   299.64124545114583
0.0045                    0.0235                   301.26193965717016
0.0045                    0.0245                   303.31703691251903
0.0045                    0.0255                   305.24536759083145
0.0045                    0.0265                   305.59364309930265
0.0045                    0.0275                   305.8303041515563
0.0045                    0.0285                   307.2998816107537
0.0045                    0.0295                   308.9117643449371
0.0045                    0.0305                   310.3557870078439
0.0045                    0.0315                   311.8326012968622
0.0055                    -0.0315                  365.525133536496
0.0055                    -0.0305                  364.6104083417595
0.0055                    -0.0295                  363.6899317717151
0.0055                    -0.0285                  362.04953752155035
0.0055                    -0.0275                  361.26380948092367
0.0055                    -0.0265                  359.38487147956334
0.0055                    -0.0255                  355.8309166565089
0.0055                    -0.0245                  351.8919344155886
0.0055                    -0.0235                  346.57903851536923
0.0055                    -0.0225                  338.52923828391096
0.0055                    -0.0215                  329.53541370759064
0.0055                    -0.0205                  323.79029144225444
0.0055                    -0.0195                  320.051497133375
0.0055                    -0.0185                  315.93817832791734
0.0055                    -0.0175                  314.47745963415184
0.0055                    -0.0165                  314.1259361407615
0.0055                    -0.0155                  313.66310045135435
0.0055                    -0.0145                  313.9303255264161
0.0055                    -0.0135                  314.12281056396256
0.0055                    -0.0125                  314.238701167511
0.0055                    -0.0115                  315.16951099202794
0.0055                    -0.0105                  315.7521246913465
0.0055                    -0.0095                  316.29436054457835
0.0055                    -0.0085                  317.3418978179974
0.0055                    -0.0075                  318.09713149974914
0.0055                    -0.0065                  318.8349985700985
0.0055                    -0.0055                  319.39674348553035
0.0055                    -0.0045                  319.9689922005008
0.0055                    -0.0035                  320.3925678277718
0.0055                    -0.0025                  320.3127185419764
0.0055                    -0.0015                  320.3299510055751
0.0055                    -5.0E-4                  320.0585597091939
0.0055                    5.0E-4                   319.30269720445597
0.0055                    0.0015                   318.6395853156803
0.0055                    0.0025                   317.5259563721338
0.0055                    0.0035                   316.2110695263598
0.0055                    0.0045                   315.0659537381307
0.0055                    0.0055                   313.38911529127273
0.0055                    0.0065                   311.67128261099225
0.0055                    0.0075                   309.99788822153687
0.0055                    0.0085                   308.6174454836075
0.0055                    0.0095                   305.5186180746432
0.0055                    0.0105                   302.19187914711983
0.0055                    0.0115                   299.0068077140776
0.0055                    0.0125                   296.35055802859864
0.0055                    0.0135                   294.37217212947735
0.0055                    0.0145                   293.8076004071729
0.0055                    0.0155                   293.42354434036815
0.0055                    0.0165                   293.374261564982
0.0055                    0.0175                   293.6305160444869
0.0055                    0.0185                   294.4599784804173
0.0055                    0.0195                   295.7391109146784
0.0055                    0.0205                   297.1926156855245
0.0055                    0.0215                   299.19525547438616
0.0055                    0.0225                   300.898679400005
0.0055                    0.0235                   301.8702205453422
0.0055                    0.0245                   303.22579999693335
0.0055                    0.0255                   304.88151446527274
0.0055                    0.0265                   306.2048578643994
0.0055                    0.0275                   307.1623228178205
0.0055                    0.0285                   308.419446699827
0.0055                    0.0295                   309.4862123917686
0.0055                    0.0305                   310.77302527222946
0.0055                    0.0315                   312.17689072121595
0.0065                    -0.0315                  362.3466418945481
0.0065                    -0.0305                  361.18622540350736
0.0065                    -0.0295                  360.20412835465424
0.0065                    -0.0285                  358.5637341044894
0.0065                    -0.0275                  356.87621864467366
0.0065                    -0.0265                  353.4728340759245
0.0065                    -0.0255                  350.06944950717525
0.0065                    -0.0245                  346.23627383674216
0.0065                    -0.0235                  338.9724731343389
0.0065                    -0.0225                  331.6270441211917
0.0065                    -0.0215                  324.1029454641539
0.0065                    -0.0205                  320.8015439809269
0.0065                    -0.0195                  317.50014249769987
0.0065                    -0.0185                  314.5722098589701
0.0065                    -0.0175                  314.45403418866806
0.0065                    -0.0165                  314.3141102519455
0.0065                    -0.0155                  314.20391259656463
0.0065                    -0.0145                  314.70973971759815
0.0065                    -0.0135                  315.1381720340911
0.0065                    -0.0125                  315.69665046358483
0.0065                    -0.0115                  316.76804517694217
0.0065                    -0.0105                  317.6713864399938
0.0065                    -0.0095                  318.5215088093332
0.0065                    -0.0085                  319.60200693672516
0.0065                    -0.0075                  320.53970103592945
0.0065                    -0.0065                  321.1589437000195
0.0065                    -0.0055                  321.7185774307403
0.0065                    -0.0045                  322.2852883348286
0.0065                    -0.0035                  322.2886046575072
0.0065                    -0.0025                  322.1684456631647
0.0065                    -0.0015                  322.1428934067381
0.0065                    -5.0E-4                  321.35914990175627
0.0065                    5.0E-4                   320.53467543595957
0.0065                    0.0015                   319.73796834877044
0.0065                    0.0025                   318.19092715896704
0.0065                    0.0035                   316.64388596916365
0.0065                    0.0045                   315.2470899927938
0.0065                    0.0055                   313.38356831081745
0.0065                    0.0065                   311.5611816094282
0.0065                    0.0075                   310.07262830685016
0.0065                    0.0085                   308.6921855689209
0.0065                    0.0095                   306.44913591177203
0.0065                    0.0105                   302.87813051749237
0.0065                    0.0115                   299.29894285831244