% Model:              SIMBench260525.mph
% Version:            COMSOL 6.2.0.339
% Date:               May 27 2026, 17:40
% Dimension:          2
% Nodes:              4096
% Expressions:        1
% Description:        温度
% Length unit:        m
% x                       y                        T (K)
5.0E-4                    -0.0315                  370.57939815076384
5.0E-4                    -0.0305                  368.820138767486
5.0E-4                    -0.0295                  367.05799260948504
5.0E-4                    -0.0285                  363.7579290029734
5.0E-4                    -0.0275                  360.6234545419037
5.0E-4                    -0.0265                  357.5804733044424
5.0E-4                    -0.0255                  355.14808711262435
5.0E-4                    -0.0245                  352.9010116363701
5.0E-4                    -0.0235                  351.146835340958
5.0E-4                    -0.0225                  349.8141618006249
5.0E-4                    -0.0215                  348.4183030435048
5.0E-4                    -0.0205                  347.544586717849
5.0E-4                    -0.0195                  346.50755851532585
5.0E-4                    -0.0185                  345.4705303128027
5.0E-4                    -0.0175                  344.72822528826134
5.0E-4                    -0.0165                  343.75772911789164
5.0E-4                    -0.0155                  342.7860036342
5.0E-4                    -0.0145                  341.5823607533092
5.0E-4                    -0.0135                  340.3451447380864
5.0E-4                    -0.0125                  338.8686330169677
5.0E-4                    -0.0115                  335.12158271883607
5.0E-4                    -0.0105                  330.4888283406458
5.0E-4                    -0.0095                  326.1566427883001
5.0E-4                    -0.0085                  318.39541317152225
5.0E-4                    -0.0075                  309.6817227600963
5.0E-4                    -0.0065                  302.62610708369033
5.0E-4                    -0.0055                  301.11896787361695
5.0E-4                    -0.0045                  299.6118286635436
5.0E-4                    -0.0035                  296.2704930597206
5.0E-4                    -0.0025                  294.8158287179278
5.0E-4                    -0.0015                  293.44758337860407
5.0E-4                    -5.0E-4                  293.09421911299745
5.0E-4                    5.0E-4                   293.09606396753657
5.0E-4                    0.0015                   293.4655374169983
5.0E-4                    0.0025                   294.9027544571684
5.0E-4                    0.0035                   296.4306695664481
5.0E-4                    0.0045                   299.922779918821
5.0E-4                    0.0055                   301.5017156522934
5.0E-4                    0.0065                   303.08065138576575
5.0E-4                    0.0075                   310.38301378086885
5.0E-4                    0.0085                   319.3324040083828
5.0E-4                    0.0095                   327.2663421604545
5.0E-4                    0.0105                   331.70943054672205
5.0E-4                    0.0115                   336.50242551646284
5.0E-4                    0.0125                   340.3855675174959
5.0E-4                    0.0135                   341.9341395652101
5.0E-4                    0.0145                   343.24065178602217
5.0E-4                    0.0155                   344.50046759373623
5.0E-4                    0.0165                   345.5317662001884
5.0E-4                    0.0175                   346.56306480664045
5.0E-4                    0.0185                   347.36298065907795
5.0E-4                    0.0195                   348.4627763363027
5.0E-4                    0.0205                   349.55476531652175
5.0E-4                    0.0215                   350.5192546870878
5.0E-4                    0.0225                   351.980931498544
5.0E-4                    0.0235                   353.3682666054185
5.0E-4                    0.0245                   355.28789037406665
5.0E-4                    0.0255                   357.64101555003555
5.0E-4                    0.0265                   360.1039877202273
5.0E-4                    0.0275                   363.2451821114603
5.0E-4                    0.0285                   366.48979347869124
5.0E-4                    0.0295                   369.8801359745406
5.0E-4                    0.0305                   371.6473946929218
5.0E-4                    0.0315                   373.4146534113031
0.0015                    -0.0315                  369.9558267204385
0.0015                    -0.0305                  368.5351396354253
0.0015                    -0.0295                  366.0461993668456
0.0015                    -0.0285                  362.4658342403783
0.0015                    -0.0275                  359.19254046128725
0.0015                    -0.0265                  356.41549901225267
0.0015                    -0.0255                  353.7070178450599
0.0015                    -0.0245                  351.5300155835364
0.0015                    -0.0235                  350.45679371377884
0.0015                    -0.0225                  349.31501798449216
0.0015                    -0.0215                  348.114662350619
0.0015                    -0.0205                  347.57693068714116
0.0015                    -0.0195                  346.83740122936325
0.0015                    -0.0185                  345.9950510954585
0.0015                    -0.0175                  345.4243556518024
0.0015                    -0.0165                  344.61048615573924
0.0015                    -0.0155                  343.50997128233985
0.0015                    -0.0145                  342.32892384019743
0.0015                    -0.0135                  341.1025575110423
0.0015                    -0.0125                  338.91383085887
0.0015                    -0.0115                  336.492704567524
0.0015                    -0.0105                  331.86899419484075
0.0015                    -0.0095                  327.980125210006
0.0015                    -0.0085                  323.0887814678428
0.0015                    -0.0075                  314.94883371055363
0.0015                    -0.0065                  308.9470538767772
0.0015                    -0.0055                  304.8045549191659
0.0015                    -0.0045                  301.9803140014526
0.0015                    -0.0035                  297.32364113575784
0.0015                    -0.0025                  294.780548107697
0.0015                    -0.0015                  293.8098904732178
0.0015                    -5.0E-4                  293.0294752311438
0.0015                    5.0E-4                   293.0349309955657
0.0015                    0.0015                   293.84427158255414
0.0015                    0.0025                   294.8605676437412
0.0015                    0.0035                   297.5450595718617
0.0015                    0.0045                   302.413617932554
0.0015                    0.0055                   305.3368987008599
0.0015                    0.0065                   309.67203149147457
0.0015                    0.0075                   315.88686667568925
0.0015                    0.0085                   324.2958040885527
0.0015                    0.0095                   329.19151219504624
0.0015                    0.0105                   333.1108342575062
0.0015                    0.0115                   337.8742837487347
0.0015                    0.0125                   340.41726752879964
0.0015                    0.0135                   342.69725354216894
0.0015                    0.0145                   343.9870367099018
0.0015                    0.0155                   345.2188948252093
0.0015                    0.0165                   346.36661551956706
0.0015                    0.0175                   347.2204434884949
0.0015                    0.0185                   347.8426395497038
0.0015                    0.0195                   348.7663630768794
0.0015                    0.0205                   349.54249432034845
0.0015                    0.0215                   350.1418827596755
0.0015                    0.0225                   351.49165864386794
0.0015                    0.0235                   352.6647927146132
0.0015                    0.0245                   353.96122096848785
0.0015                    0.0255                   356.34796629545616
0.0015                    0.0265                   358.9476921644826
0.0015                    0.0275                   361.7530755040787
0.0015                    0.0285                   365.06124413737336
0.0015                    0.0295                   368.7328673792539
0.0015                    0.0305                   371.3331619320869
0.0015                    0.0315                   372.793600284667
0.0025                    -0.0315                  369.33225529011304
0.0025                    -0.0305                  367.5829358322618
0.0025                    -0.0295                  364.96531755866977
0.0025                    -0.0285                  361.37554228207733
0.0025                    -0.0275                  358.04481578911316
0.0025                    -0.0265                  355.31276656162123
0.0025                    -0.0255                  352.5807173341294
0.0025                    -0.0245                  351.1392898731269
0.0025                    -0.0235                  350.05283003428815
0.0025                    -0.0225                  348.96637019544926
0.0025                    -0.0215                  348.5482576810156
0.0025                    -0.0205                  348.0085207555708
0.0025                    -0.0195                  347.48999113666196
0.0025                    -0.0185                  347.0684865738505
0.0025                    -0.0175                  346.49315433184853
0.0025                    -0.0165                  345.72416872744924
0.0025                    -0.0155                  344.5418941188907
0.0025                    -0.0145                  343.35961951033204
0.0025                    -0.0135                  341.340334336769
0.0025                    -0.0125                  338.93516749225876
0.0025                    -0.0115                  336.53000064774847
0.0025                    -0.0105                  333.11804812143674
0.0025                    -0.0095                  329.23113533140327
0.0025                    -0.0085                  325.34422254136973
0.0025                    -0.0075                  320.3482233371319
0.0025                    -0.0065                  314.34458314755386
0.0025                    -0.0055                  308.3328539101082
0.0025                    -0.0045                  303.38843519143177
0.0025                    -0.0035                  298.72598854930413
0.0025                    -0.0025                  294.85762418892773
0.0025                    -0.0015                  294.0762629049201
0.0025                    -5.0E-4                  293.29490162091247
0.0025                    5.0E-4                   293.3123775003433
0.0025                    0.0015                   294.1225876695565
0.0025                    0.0025                   294.93279783876966
0.0025                    0.0035                   299.01343103976166
0.0025                    0.0045                   303.88986226898214
0.0025                    0.0055                   309.0920175438783
0.0025                    0.0065                   315.31384284887304
0.0025                    0.0075                   321.5305496598488
0.0025                    0.0085                   326.6325904983041
0.0025                    0.0095                   330.5403880353469
0.0025                    0.0105                   334.44818557238966
0.0025                    0.0115                   337.86128195326035
0.0025                    0.0125                   340.4035952065929
0.0025                    0.0135                   342.94590845992553
0.0025                    0.0145                   345.0143249076598
0.0025                    0.0155                   346.24844837995437
0.0025                    0.0165                   347.49968519605414
0.0025                    0.0175                   348.2758271071368
0.0025                    0.0185                   348.8993987564841
0.0025                    0.0195                   349.35537447515463
0.0025                    0.0205                   349.9495790271852
0.0025                    0.0215                   350.5437835792158
0.0025                    0.0225                   351.11230979734614
0.0025                    0.0235                   352.24078026403527
0.0025                    0.0245                   353.3692507307243
0.0025                    0.0255                   355.2851437779059
0.0025                    0.0265                   357.8143992809023
0.0025                    0.0275                   360.3911224777644
0.0025                    0.0285                   363.85890920764496
0.0025                    0.0295                   367.63867634070874
0.0025                    0.0305                   370.5998294895141
0.0025                    0.0315                   372.1590296854651
0.0035                    -0.0315                  368.2145160005365
0.0035                    -0.0305                  366.1254008708497
0.0035                    -0.0295                  363.92409589599976
0.0035                    -0.0285                  360.45365987544045
0.0035                    -0.0275                  357.30052254066106
0.0035                    -0.0265                  354.357426726697
0.0035                    -0.0255                  352.29074555687424
0.0035                    -0.0245                  351.7956436688871
0.0035                    -0.0235                  350.807495545478
0.0035                    -0.0225                  350.3691998228136
0.0035                    -0.0215                  350.74423487118554
0.0035                    -0.0205                  350.20449794574074
0.0035                    -0.0195                  350.1453716877003
0.0035                    -0.0185                  350.2007293080003
0.0035                    -0.0175                  349.62539706599824
0.0035                    -0.0165                  348.32763505823493
0.0035                    -0.0155                  346.9975257566948
0.0035                    -0.0145                  345.713203342964
0.0035                    -0.0135                  341.819170503008
0.0035                    -0.0125                  338.8440421744692
0.0035                    -0.0115                  335.998926817387
0.0035                    -0.0105                  331.6951735573922
0.0035                    -0.0095                  327.7325745226181
0.0035                    -0.0085                  324.2405505294994
0.0035                    -0.0075                  321.2066989933363
0.0035                    -0.0065                  315.2030588037584
0.0035                    -0.0055                  309.02564050969363
0.0035                    -0.0045                  303.15084258332996
0.0035                    -0.0035                  298.4883959412024
0.0035                    -0.0025                  295.6109298110909
0.0035                    -0.0015                  293.9130708282023
0.0035                    -5.0E-4                  293.2877002871682
0.0035                    5.0E-4                   293.29221696577247
0.0035                    0.0015                   293.9522133946274
0.0035                    0.0025                   295.7388900222144
0.0035                    0.0035                   298.7540185766059
0.0035                    0.0045                   303.63044980582634
0.0035                    0.0055                   309.83965635424113
0.0035                    0.0065                   316.29280838935824
0.0035                    0.0075                   322.48775658755324
0.0035                    0.0085                   325.53839645846955
0.0035                    0.0095                   329.11124679381646
0.0035                    0.0105                   333.0940360159215
0.0035                    0.0115                   337.3336216533911
0.0035                    0.0125                   340.1803808000544
0.0035                    0.0135                   343.4238127180476
0.0035                    0.0145                   347.43280160817136
0.0035                    0.0155                   348.66692508046594
0.0035                    0.0165                   350.1083581799103
0.0035                    0.0175                   351.4170867029974
0.0035                    0.0185                   352.0406583523447
0.0035                    0.0195                   351.98796181957624
0.0035                    0.0205                   352.2176238090497
0.0035                    0.0215                   352.65803617552797
0.0035                    0.0225                   352.2974875578488
0.0035                    0.0235                   353.131404846874
0.0035                    0.0245                   353.91540938119044
0.0035                    0.0255                   354.96893468105753
0.0035                    0.0265                   357.498190184054
0.0035                    0.0275                   359.75053962761774
0.0035                    0.0285                   363.10859403632793
0.0035                    0.0295                   366.8292446478715
0.0035                    0.0305                   369.57125386862924
0.0035                    0.0315                   371.29587445732585
0.0045                    -0.0315                  367.52647186592037
0.0045                    -0.0305                  365.19364407656667
0.0045                    -0.0295                  362.8796313233082
0.0045                    -0.0285                  359.7384934058387
0.0045                    -0.0275                  356.5803965481852
0.0045                    -0.0265                  353.4272592134058
0.0045                    -0.0255                  352.6893896990901
0.0045                    -0.0245                  352.1942878111029
0.0045                    -0.0235                  351.6195384604184
0.0045                    -0.0225                  352.00349362185847
0.0045                    -0.0215                  352.38744878329857
0.0045                    -0.0205                  352.58150491304673
0.0045                    -0.0195                  352.80075223873865
0.0045                    -0.0185                  353.0199995644306
0.0045                    -0.0175                  352.36968349208524
0.0045                    -0.0165                  350.93443626327536
0.0045                    -0.0155                  349.49918903446553
0.0045                    -0.0145                  346.50705366223815
0.0045                    -0.0135                  342.6130208222821
0.0045                    -0.0125                  338.75291685667963
0.0045                    -0.0115                  334.7478302075859
0.0045                    -0.0105                  330.44407694759104
0.0045                    -0.0095                  326.270031048386
0.0045                    -0.0085                  323.3027567388317
0.0045                    -0.0075                  320.33548242927736
0.0045                    -0.0065                  315.99429595656864
0.0045                    -0.0055                  309.7184271092791
0.0045                    -0.0045                  303.44255826198946
0.0045                    -0.0035                  299.24193111456543
0.0045                    -0.0025                  296.54977733472094
0.0045                    -0.0015                  293.85762355487657
0.0045                    -5.0E-4                  293.5858150320096
0.0045                    5.0E-4                   293.5903317106138
0.0045                    0.0015                   293.93223302344677
0.0045                    0.0025                   296.7157213188566
0.0045                    0.0035                   299.49920961426636
0.0045                    0.0045                   303.9842862670767
0.0045                    0.0055                   310.58729516460403
0.0045                    0.0065                   317.1903040621314
0.0045                    0.0075                   321.5688315538812
0.0045                    0.0085                   324.6194714247976
0.0045                    0.0095                   327.682105552286
0.0045                    0.0105                   331.8655674059179
0.0045                    0.0115                   336.10515304338736
0.0045                    0.0125                   340.04841746187867
0.0045                    0.0135                   344.1533013129021
0.0045                    0.0145                   348.25818516392553
0.0045                    0.0155                   351.1756912215037
0.0045                    0.0165                   352.7170311637665
0.0045                    0.0175                   354.25837110602924
0.0045                    0.0185                   354.78509396979956
0.0045                    0.0195                   354.6603432577649
0.0045                    0.0205                   354.53559254573025
0.0045                    0.0215                   354.3240182415883
0.0045                    0.0225                   353.9634696239092
0.0045                    0.0235                   353.92298092248035
0.0045                    0.0245                   354.33351347348173
0.0045                    0.0255                   354.7646251676172
0.0045                    0.0265                   356.8485052739482
0.0045                    0.0275                   359.04802893920055
0.0045                    0.0285                   362.5067940978712
0.0045                    0.0295                   366.1117083743059
0.0045                    0.0305                   368.77241623080226
0.0045                    0.0315                   370.7263822482275
0.0055                    -0.0315                  366.8384277313045
0.0055                    -0.0305                  364.74255226171283
0.0055                    -0.0295                  362.59048667197436
0.0055                    -0.0285                  359.18822574016457
0.0055                    -0.0275                  356.0300678775289
0.0055                    -0.0265                  354.16053732692365
0.0055                    -0.0255                  353.56210334469154
0.0055                    -0.0245                  353.04341293253077
0.0055                    -0.0235                  353.541679344612
0.0055                    -0.0225                  354.24091000835847
0.0055                    -0.0215                  354.63145828387485
0.0055                    -0.0205                  355.618926330161
0.0055                    -0.0195                  356.0258578359237
0.0055                    -0.0185                  356.1583360239876
0.0055                    -0.0175                  354.78565726651425
0.0055                    -0.0165                  353.351236499258
0.0055                    -0.0155                  350.90945103170657
0.0055                    -0.0145                  346.00743223603274
0.0055                    -0.0135                  342.11928535763025
0.0055                    -0.0125                  337.19192796409146
0.0055                    -0.0115                  331.83351035253975
0.0055                    -0.0105                  327.53312071968725
0.0055                    -0.0095                  324.0530848275697
0.0055                    -0.0085                  321.05906269298623
0.0055                    -0.0075                  318.0909811785796
0.0055                    -0.0065                  315.49566727232843
0.0055                    -0.0055                  309.7977988450693
0.0055                    -0.0045                  303.66299617843225
0.0055                    -0.0035                  298.9728151501639
0.0055                    -0.0025                  296.2765141426561
0.0055                    -0.0015                  294.1997657359639
0.0055                    -5.0E-4                  293.5272347545639
0.0055                    5.0E-4                   293.53147254740867
0.0055                    0.0015                   294.24340379993436
0.0055                    0.0025                   296.42712100575926
0.0055                    0.0035                   299.2140396155225
0.0055                    0.0045                   304.1708913182716
0.0055                    0.0055                   310.67269543215605
0.0055                    0.0065                   316.51745985227006
0.0055                    0.0075                   319.39357194861765
0.0055                    0.0085                   322.444252650325
0.0055                    0.0095                   325.46459076888056
0.0055                    0.0105                   328.9706675002466
0.0055                    0.0115                   333.20234527003976
0.0055                    0.0125                   338.5588606448025
0.0055                    0.0135                   343.3180579744828
0.0055                    0.0145                   347.4123802937928
0.0055                    0.0155                   352.8629538992149
0.0055                    0.0165                   354.9821228712847
0.0055                    0.0175                   356.54421982654884
0.0055                    0.0185                   358.05498765549356
0.0055                    0.0195                   357.9307206537044
0.0055                    0.0205                   357.4635294913674
0.0055                    0.0215                   356.732000373239
0.0055                    0.0225                   356.36976339511125
0.0055                    0.0235                   355.39124492092014
0.0055                    0.0245                   355.33970654493584
0.0055                    0.0255                   355.94238886631774
0.0055                    0.0265                   356.93738425421293
0.0055                    0.0275                   358.34551825078336
0.0055                    0.0285                   361.93990855981497
0.0055                    0.0295                   365.6067230274025
0.0055                    0.0305                   368.1737802568931
0.0055                    0.0315                   370.1560606689902
0.0065                    -0.0315                  366.63233353362375
0.0065                    -0.0305                  364.53187279616503
0.0065                    -0.0295                  362.2628975223773
0.0065                    -0.0285                  358.8512159103896
0.0065                    -0.0275                  355.80467522837625
0.0065                    -0.0265                  355.14236600158347
0.0065                    -0.0255                  354.48005677479074
0.0065                    -0.0245                  354.22230170383733
0.0065                    -0.0235                  355.3923890006047
0.0065                    -0.0225                  356.562476297372
0.0065                    -0.0215                  357.2756178559968
0.0065                    -0.0205                  358.386272159389
0.0065                    -0.0195                  359.33710154168745
0.0065                    -0.0185                  358.5087210361688
0.0065                    -0.0175                  357.1367577467657
0.0065                    -0.0165                  355.73871224856583
0.0065                    -0.0155                  350.9712149753928
0.0065                    -0.0145                  345.77299265042996
0.0065                    -0.0135                  341.2407808982802
0.0065                    -0.0125                  335.0813325900177
0.0065                    -0.0115                  328.9218842817552
0.0065                    -0.0105                  324.6530270389318
0.0065                    -0.0095                  321.6141660493683
0.0065                    -0.0085                  318.5783257753095
0.0065                    -0.0075                  315.81324541197773
0.0065                    -0.0065                  313.28030275466034
0.0065                    -0.0055                  309.770239172604
0.0065                    -0.0045                  304.46993523226956
0.0065                    -0.0035                  299.5809602332406
0.0065                    -0.0025                  295.8072105472474
0.0065                    -0.0015                  294.7032552679161
0.0065                    -5.0E-4                  293.6474396384525
0.0065                    5.0E-4                   293.68610968849913
0.0065                    0.0015                   294.7564783503181
0.0065                    0.0025                   295.93806982644804
0.0065                    0.0035                   299.95175259027883
0.0065                    0.0045                   305.0373873839601
0.0065                    0.0055                   310.64418023905534
0.0065                    0.0065                   314.244780632941
0.0065                    0.0075                   317.07888235223504
0.0065                    0.0085                   320.04020305713567
0.0065                    0.0095                   323.0210192760815
0.0065                    0.0105                   326.0018354950273
0.0065                    0.0115                   330.47172238081924