% Model:              SIMBench260525.mph
% Version:            COMSOL 6.2.0.339
% Date:               May 27 2026, 17:39
% Dimension:          2
% Nodes:              4096
% Expressions:        1
% Description:        温度
% Length unit:        m
% x                       y                        T (K)
5.0E-4                    -0.0315                  379.01884284257375
5.0E-4                    -0.0305                  377.1801476990813
5.0E-4                    -0.0295                  375.3380418655387
5.0E-4                    -0.0285                  371.69737960510395
5.0E-4                    -0.0275                  368.0606831400384
5.0E-4                    -0.0265                  364.4329036173144
5.0E-4                    -0.0255                  361.2516209247799
5.0E-4                    -0.0245                  358.3379902488646
5.0E-4                    -0.0235                  355.9402215090221
5.0E-4                    -0.0225                  354.1428589427179
5.0E-4                    -0.0215                  352.3181542316754
5.0E-4                    -0.0205                  351.13421170286904
5.0E-4                    -0.0195                  349.7916125282812
5.0E-4                    -0.0185                  348.4490133536933
5.0E-4                    -0.0175                  347.65005262357636
5.0E-4                    -0.0165                  346.46578534455995
5.0E-4                    -0.0155                  345.28327504391063
5.0E-4                    -0.0145                  344.1576771527127
5.0E-4                    -0.0135                  342.6566240966566
5.0E-4                    -0.0125                  341.03154235043115
5.0E-4                    -0.0115                  337.605305270991
5.0E-4                    -0.0105                  333.30893836224664
5.0E-4                    -0.0095                  328.97888320746284
5.0E-4                    -0.0085                  320.97907627271104
5.0E-4                    -0.0075                  312.09338349006003
5.0E-4                    -0.0065                  304.9896270074918
5.0E-4                    -0.0055                  303.1751375889597
5.0E-4                    -0.0045                  301.36064817042774
5.0E-4                    -0.0035                  297.24128534532474
5.0E-4                    -0.0025                  295.3672150406047
5.0E-4                    -0.0015                  293.6001826194303
5.0E-4                    -5.0E-4                  293.12052740156344
5.0E-4                    5.0E-4                   293.1088691335225
5.0E-4                    0.0015                   293.2929836873114
5.0E-4                    0.0025                   294.07631353395516
5.0E-4                    0.0035                   294.911949358766
5.0E-4                    0.0045                   296.86673864789657
5.0E-4                    0.0055                   297.7170229502001
5.0E-4                    0.0065                   298.5673072525036
5.0E-4                    0.0075                   303.85086456100044
5.0E-4                    0.0085                   310.07840570901794
5.0E-4                    0.0095                   315.5913377182435
5.0E-4                    0.0105                   319.451989040085
5.0E-4                    0.0115                   324.0921636504472
5.0E-4                    0.0125                   327.82232113732704
5.0E-4                    0.0135                   329.12830750128876
5.0E-4                    0.0145                   330.16991695389055
5.0E-4                    0.0155                   331.2853864452566
5.0E-4                    0.0165                   332.11792017832045
5.0E-4                    0.0175                   332.9504539113842
5.0E-4                    0.0185                   333.77465230139927
5.0E-4                    0.0195                   334.66327345448775
5.0E-4                    0.0205                   335.54866065112185
5.0E-4                    0.0215                   336.41198361953127
5.0E-4                    0.0225                   337.5231349677543
5.0E-4                    0.0235                   338.6074946476967
5.0E-4                    0.0245                   340.23244763840205
5.0E-4                    0.0255                   342.2060954362229
5.0E-4                    0.0265                   344.26229888800367
5.0E-4                    0.0275                   347.1988006861541
5.0E-4                    0.0285                   350.2838039379013
5.0E-4                    0.0295                   353.5276273549198
5.0E-4                    0.0305                   355.2746416085033
5.0E-4                    0.0315                   357.02165586208685
0.0015                    -0.0315                  378.4195824855509
0.0015                    -0.0305                  376.98090649136276
0.0015                    -0.0295                  374.33761914409956
0.0015                    -0.0285                  370.48950518855673
0.0015                    -0.0275                  366.78698803281816
0.0015                    -0.0265                  363.18512703924426
0.0015                    -0.0255                  359.6050688268337
0.0015                    -0.0245                  356.7647758751892
0.0015                    -0.0235                  355.07968526923014
0.0015                    -0.0225                  353.36492981341934
0.0015                    -0.0215                  351.7801720941385
0.0015                    -0.0205                  351.00868421174835
0.0015                    -0.0195                  350.005944441582
0.0015                    -0.0185                  349.017505766289
0.0015                    -0.0175                  348.5233803305813
0.0015                    -0.0165                  347.60906225123097
0.0015                    -0.0155                  346.6171644201573
0.0015                    -0.0145                  345.7447279958768
0.0015                    -0.0135                  344.36425382355446
0.0015                    -0.0125                  342.37013247971413
0.0015                    -0.0115                  340.2460745056211
0.0015                    -0.0105                  335.94858120471594
0.0015                    -0.0095                  331.56893234100716
0.0015                    -0.0085                  326.2421058858423
0.0015                    -0.0075                  317.9744933844996
0.0015                    -0.0065                  311.9806038962354
0.0015                    -0.0055                  307.7593177837851
0.0015                    -0.0045                  304.27896543695596
0.0015                    -0.0035                  298.5657000623767
0.0015                    -0.0025                  295.4012293084763
0.0015                    -0.0015                  294.1245892222874
0.0015                    -5.0E-4                  293.07946862124965
0.0015                    5.0E-4                   293.056180214172
0.0015                    0.0015                   293.47420259541434
0.0015                    0.0025                   294.01371600453433
0.0015                    0.0035                   295.5150856954207
0.0015                    0.0045                   298.26666040620734
0.0015                    0.0055                   299.878083871926
0.0015                    0.0065                   303.0056970214287
0.0015                    0.0075                   307.65936111048757
0.0015                    0.0085                   313.57785305913075
0.0015                    0.0095                   316.951859203833
0.0015                    0.0105                   319.64569822804066
0.0015                    0.0115                   324.2563869753077
0.0015                    0.0125                   326.6460903295431
0.0015                    0.0135                   328.75044929655144
0.0015                    0.0145                   329.81967682908976
0.0015                    0.0155                   330.9856028731847
0.0015                    0.0165                   332.01322748283457
0.0015                    0.0175                   332.8313833365827
0.0015                    0.0185                   333.6302794692782
0.0015                    0.0195                   334.4858226528796
0.0015                    0.0205                   335.24036991521325
0.0015                    0.0215                   335.92170436598224
0.0015                    0.0225                   336.97707761069097
0.0015                    0.0235                   337.9842423710733
0.0015                    0.0245                   339.10791662046626
0.0015                    0.0255                   341.10683168728815
0.0015                    0.0265                   343.26581256250813
0.0015                    0.0275                   345.7201069781594
0.0015                    0.0285                   348.8702261662393
0.0015                    0.0295                   352.39271327726937
0.0015                    0.0305                   354.9163816299493
0.0015                    0.0315                   356.39725059394357
0.0025                    -0.0315                  377.82032212852806
0.0025                    -0.0305                  376.0514344125563
0.0025                    -0.0295                  373.30198637830006
0.0025                    -0.0285                  369.4356782316645
0.0025                    -0.0275                  365.49217906440856
0.0025                    -0.0265                  361.9027637608299
0.0025                    -0.0255                  358.31334845725115
0.0025                    -0.0245                  356.12715393563906
0.0025                    -0.0235                  354.4322044533617
0.0025                    -0.0225                  352.73725497108427
0.0025                    -0.0215                  352.0120078865331
0.0025                    -0.0205                  351.2380200547917
0.0025                    -0.0195                  350.49865264549044
0.0025                    -0.0185                  350.1858926193919
0.0025                    -0.0175                  349.68687395716734
0.0025                    -0.0165                  349.1804180622108
0.0025                    -0.0155                  348.30693744187846
0.0025                    -0.0145                  347.4334568215462
0.0025                    -0.0135                  345.8456319157736
0.0025                    -0.0125                  343.7395330966577
0.0025                    -0.0115                  341.6334342775418
0.0025                    -0.0105                  338.00641431442773
0.0025                    -0.0095                  333.62921931524056
0.0025                    -0.0085                  329.25202431605334
0.0025                    -0.0075                  324.0492797394867
0.0025                    -0.0065                  318.05638063974806
0.0025                    -0.0055                  312.0210967260759
0.0025                    -0.0045                  306.10474062735307
0.0025                    -0.0035                  300.3853264170618
0.0025                    -0.0025                  295.57235188684496
0.0025                    -0.0015                  294.52658278052365
0.0025                    -5.0E-4                  293.4808136742024
0.0025                    5.0E-4                   293.1836249446931
0.0025                    0.0015                   293.6019707682594
0.0025                    0.0025                   294.02031659182563
0.0025                    0.0035                   296.29477485118144
0.0025                    0.0045                   299.053074295362
0.0025                    0.0055                   302.0952883412294
0.0025                    0.0065                   306.74600795716566
0.0025                    0.0075                   311.3969098472914
0.0025                    0.0085                   315.08122015006336
0.0025                    0.0095                   317.75256702685834
0.0025                    0.0105                   320.4239139036533
0.0025                    0.0115                   322.9961509156482
0.0025                    0.0125                   325.38475845945754
0.0025                    0.0135                   327.77336600326686
0.0025                    0.0145                   329.6518381471643
0.0025                    0.0155                   330.81847798834934
0.0025                    0.0165                   332.02224591954945
0.0025                    0.0175                   333.02573100811196
0.0025                    0.0185                   333.82691404174966
0.0025                    0.0195                   334.58705942651545
0.0025                    0.0205                   335.26428675792425
0.0025                    0.0215                   335.94151408933305
0.0025                    0.0225                   336.5877769241082
0.0025                    0.0235                   337.57653695602755
0.0025                    0.0245                   338.56529698794697
0.0025                    0.0255                   340.18432459076774
0.0025                    0.0265                   342.28753170014886
0.0025                    0.0275                   344.4283071122325
0.0025                    0.0285                   347.6851582185397
0.0025                    0.0295                   351.3111335174651
0.0025                    0.0305                   354.1828839277363
0.0025                    0.0315                   355.76111986018094
0.0035                    -0.0315                  376.7172784538095
0.0035                    -0.0305                  374.61420264350676
0.0035                    -0.0295                  372.3430350888263
0.0035                    -0.0285                  368.42378486108925
0.0035                    -0.0275                  364.3637724531425
0.0035                    -0.0265                  360.5384969842138
0.0035                    -0.0255                  357.6192531928257
0.0035                    -0.0245                  356.28293571191375
0.0035                    -0.0235                  354.64760779971084
0.0035                    -0.0225                  353.73839490619315
0.0035                    -0.0215                  353.81764980970036
0.0035                    -0.0205                  353.043661977959
0.0035                    -0.0195                  353.05636036954627
0.0035                    -0.0185                  353.32469134791785
0.0035                    -0.0175                  352.82567268569335
0.0035                    -0.0165                  352.31827774209904
0.0035                    -0.0155                  351.65739354347005
0.0035                    -0.0145                  350.70204719198927
0.0035                    -0.0135                  347.7013014119913
0.0035                    -0.0125                  345.2545833726916
0.0035                    -0.0115                  342.49812852936026
0.0035                    -0.0105                  337.6124196845253
0.0035                    -0.0095                  333.14391929396805
0.0035                    -0.0085                  329.1316922321792
0.0035                    -0.0075                  325.5230313922733
0.0035                    -0.0065                  319.53013229253474
0.0035                    -0.0055                  312.9073924196649
0.0035                    -0.0045                  306.2730537593119
0.0035                    -0.0035                  300.5536395490206
0.0035                    -0.0025                  296.6774869125146
0.0035                    -0.0015                  294.37195425730454
0.0035                    -5.0E-4                  293.47919414637204
0.0035                    5.0E-4                   293.1955164569438
0.0035                    0.0015                   293.4863400755331
0.0035                    0.0025                   294.3885749671594
0.0035                    0.0035                   295.9405570749383
0.0035                    0.0045                   298.69885651911886
0.0035                    0.0055                   302.58720115098424
0.0035                    0.0065                   306.97656675134675
0.0035                    0.0075                   311.60966939260794
0.0035                    0.0085                   313.47067453948046
0.0035                    0.0095                   315.8271216461908
0.0035                    0.0105                   318.51754992876573
0.0035                    0.0115                   321.27390533817925
0.0035                    0.0125                   323.7284993848514
0.0035                    0.0135                   326.6278077210694
0.0035                    0.0145                   330.0889252760908
0.0035                    0.0155                   331.25556511727575
0.0035                    0.0165                   332.9585490084878
0.0035                    0.0175                   334.63736610673766
0.0035                    0.0185                   335.43854914037536
0.0035                    0.0195                   336.1004442221772
0.0035                    0.0205                   336.76242243150574
0.0035                    0.0215                   337.33756281209105
0.0035                    0.0225                   337.38103522228096
0.0035                    0.0235                   338.18280202550227
0.0035                    0.0245                   338.9081469532854
0.0035                    0.0255                   339.85272462932096
0.0035                    0.0265                   341.9559317387021
0.0035                    0.0275                   343.8849314382883
0.0035                    0.0285                   346.9723238720744
0.0035                    0.0295                   350.5020539271217
0.0035                    0.0305                   353.1718974460996
0.0035                    0.0315                   354.92174732180854
0.0045                    -0.0315                  376.02812659421136
0.0045                    -0.0305                  373.68811937676634
0.0045                    -0.0295                  371.3631780611435
0.0045                    -0.0285                  367.33468377580357
0.0045                    -0.0275                  363.2623745395325
0.0045                    -0.0265                  359.2023621315857
0.0045                    -0.0255                  357.61874564331754
0.0045                    -0.0245                  356.2824281624057
0.0045                    -0.0235                  354.9325601952072
0.0045                    -0.0225                  355.0201362925392
0.0045                    -0.0215                  355.1077123898712
0.0045                    -0.0205                  355.14561506546255
0.0045                    -0.0195                  355.614068093602
0.0045                    -0.0185                  356.0825211217414
0.0045                    -0.0175                  355.95997205361294
0.0045                    -0.0165                  355.45097679733556
0.0045                    -0.0155                  354.9419815410582
0.0045                    -0.0145                  352.74887198356004
0.0045                    -0.0135                  349.74812620356204
0.0045                    -0.0125                  346.7696336487255
0.0045                    -0.0115                  342.3146285142391
0.0045                    -0.0105                  337.4289196694042
0.0045                    -0.0095                  332.6944445780366
0.0045                    -0.0085                  329.16064813856826
0.0045                    -0.0075                  325.6268516990998
0.0045                    -0.0065                  320.7505125401566
0.0045                    -0.0055                  313.79368811325395
0.0045                    -0.0045                  306.8368636863513
0.0045                    -0.0035                  301.75472579522807
0.0045                    -0.0025                  298.0555454532612
0.0045                    -0.0015                  294.3563651112944
0.0045                    -5.0E-4                  293.77234595993605
0.0045                    5.0E-4                   293.4886682705078
0.0045                    0.0015                   293.44608690312083
0.0045                    0.0025                   294.83939759180316
0.0045                    0.0035                   296.23270828048555
0.0045                    0.0045                   298.8642056397481
0.0045                    0.0055                   303.0791139607391
0.0045                    0.0065                   307.2940222817301
0.0045                    0.0075                   310.16644382749115
0.0045                    0.0085                   312.02744897436367
0.0045                    0.0095                   313.90167626552324
0.0045                    0.0105                   316.64340992786185
0.0045                    0.0115                   319.3997653372753
0.0045                    0.0125                   322.1344105104155
0.0045                    0.0135                   325.67054001739484
0.0045                    0.0145                   329.20666952437415
0.0045                    0.0155                   331.92390720168424
0.0045                    0.0165                   333.8948520974263
0.0045                    0.0175                   335.86579699316826
0.0045                    0.0185                   336.96834099197287
0.0045                    0.0195                   337.61549370183803
0.0045                    0.0205                   338.2626464117031
0.0045                    0.0215                   338.43605495038685
0.0045                    0.0225                   338.47952736057675
0.0045                    0.0235                   338.71332361424527
0.0045                    0.0245                   339.1530730210727
0.0045                    0.0255                   339.6150901266322
0.0045                    0.0265                   341.41453514883966
0.0045                    0.0275                   343.3103010433264
0.0045                    0.0285                   346.50128123524775
0.0045                    0.0295                   349.84258559284746
0.0045                    0.0305                   352.41080359116734
0.0045                    0.0315                   354.4101191009212
0.0055                    -0.0315                  375.3389747346134
0.0055                    -0.0305                  373.188704085731
0.0055                    -0.0295                  370.93012936126445
0.0055                    -0.0285                  366.6544404121847
0.0055                    -0.0275                  362.5819798342097
0.0055                    -0.0265                  359.66157887828274
0.0055                    -0.0255                  358.03573357739015
0.0055                    -0.0245                  356.67864198421427
0.0055                    -0.0235                  356.48464754026145
0.0055                    -0.0225                  356.7680638319563
0.0055                    -0.0215                  356.8607325182172
0.0055                    -0.0205                  357.8435638046909
0.0055                    -0.0195                  358.4586225331551
0.0055                    -0.0185                  358.89817625460296
0.0055                    -0.0175                  358.82685017627136
0.0055                    -0.0165                  358.3190280358027
0.0055                    -0.0155                  357.0109850865392
0.0055                    -0.0145                  353.6338722097935
0.0055                    -0.0135                  350.6381416965176
0.0055                    -0.0125                  345.9950398780607
0.0055                    -0.0115                  340.150420092917
0.0055                    -0.0105                  335.2681601201445
0.0055                    -0.0095                  330.8903110885567
0.0055                    -0.0085                  327.1454776415189
0.0055                    -0.0075                  323.6091798854154
0.0055                    -0.0065                  320.91343892214775
0.0055                    -0.0055                  314.589288060066
0.0055                    -0.0045                  307.7036617655262
0.0055                    -0.0035                  301.6418246100227
0.0055                    -0.0025                  297.9383126086946
0.0055                    -0.0015                  294.97387947856845
0.0055                    -5.0E-4                  293.7509029507604
0.0055                    5.0E-4                   293.46719631167747
0.0055                    0.0015                   293.58148130597004
0.0055                    0.0025                   294.6006010395255
0.0055                    0.0035                   295.9964386350482
0.0055                    0.0045                   298.6245095610755
0.0055                    0.0055                   302.7500024277066
0.0055                    0.0065                   306.5673363035165
0.0055                    0.0075                   308.7120724443274
0.0055                    0.0085                   310.57305399250043
0.0055                    0.0095                   312.08784059897766
0.0055                    0.0105                   313.8621223794768
0.0055                    0.0115                   316.61370923758096
0.0055                    0.0125                   319.89555551884774
0.0055                    0.0135                   323.4334375565843
0.0055                    0.0145                   326.9610112237315
0.0055                    0.0155                   331.5748269411798
0.0055                    0.0165                   333.9405276646402
0.0055                    0.0175                   336.0759035135276
0.0055                    0.0185                   338.920701955044
0.0055                    0.0195                   339.5679828368757
0.0055                    0.0205                   340.1048688164684
0.0055                    0.0215                   340.3550831491607
0.0055                    0.0225                   340.39668815579773
0.0055                    0.0235                   339.9047878905597
0.0055                    0.0245                   340.0343418342552
0.0055                    0.0255                   340.6287658219518
0.0055                    0.0265                   341.5078662682274
0.0055                    0.0275                   342.73567064836453
0.0055                    0.0285                   346.0582825868701
0.0055                    0.0295                   349.44930649358935
0.0055                    0.0305                   351.9191050564094
0.0055                    0.0315                   353.899058036908
0.0065                    -0.0315                  375.05265218533845
0.0065                    -0.0305                  372.8817959380873
0.0065                    -0.0295                  370.43527732538666
0.0065                    -0.0285                  366.1517451747777
0.0065                    -0.0275                  362.19218156930043
0.0065                    -0.0265                  360.3510623789389
0.0065                    -0.0255                  358.50994318857744
0.0065                    -0.0245                  357.4357393796471
0.0065                    -0.0235                  358.01011780174986
0.0065                    -0.0225                  358.5844962238526
0.0065                    -0.0215                  359.13878152244877
0.0065                    -0.0205                  360.30533244462515
0.0065                    -0.0195                  361.3465747853895
0.0065                    -0.0185                  361.46311793664927
0.0065                    -0.0175                  361.39696696360124
0.0065                    -0.0165                  361.146148179098
0.0065                    -0.0155                  357.9961735460068
0.0065                    -0.0145                  354.5067775030446
0.0065                    -0.0135                  351.06357121312675
0.0065                    -0.0125                  344.4835535991486
0.0065                    -0.0115                  337.9035359851704
0.0065                    -0.0105                  332.9573646989642
0.0065                    -0.0095                  328.8468544111913
0.0065                    -0.0085                  324.76351712937293
0.0065                    -0.0075                  321.68683867035463
0.0065                    -0.0065                  319.11739407948096
0.0065                    -0.0055                  315.36925618380155
0.0065                    -0.0045                  308.86854832132514
0.0065                    -0.0035                  302.5524214977804
0.0065                    -0.0025                  297.57867394654915
0.0065                    -0.0015                  295.765244311664
0.0065                    -5.0E-4                  294.0001307964932
0.0065                    5.0E-4                   293.54838199212384
0.0065                    0.0015                   293.86269888595393
0.0065                    0.0025                   294.249441222974
0.0065                    0.0035                   296.34192794351577
0.0065                    0.0045                   299.04197491392506
0.0065                    0.0055                   302.2714521698961
0.0065                    0.0065                   304.8984984782435
0.0065                    0.0075                   307.11648124872215
0.0065                    0.0085                   309.08811785343295
0.0065                    0.0095                   310.1471788813612
0.0065                    0.0105                   311.2062399092894