% Model:              SIMBench260525.mph
% Version:            COMSOL 6.2.0.339
% Date:               May 27 2026, 17:54
% Dimension:          2
% Nodes:              4096
% Expressions:        1
% Description:        温度
% Length unit:        m
% x                       y                        T (K)
5.0E-4                    -0.0315                  323.0953605371589
5.0E-4                    -0.0305                  321.53256197703763
5.0E-4                    -0.0295                  319.96639970948286
5.0E-4                    -0.0285                  317.37431826654324
5.0E-4                    -0.0275                  315.1881337975029
5.0E-4                    -0.0265                  313.15206885157886
5.0E-4                    -0.0255                  311.8550901353313
5.0E-4                    -0.0245                  310.6059687094821
5.0E-4                    -0.0235                  309.6297822305301
5.0E-4                    -0.0225                  309.03065935186993
5.0E-4                    -0.0215                  308.3787774378949
5.0E-4                    -0.0205                  307.9514726795626
5.0E-4                    -0.0195                  307.58327969483105
5.0E-4                    -0.0185                  307.1990167829813
5.0E-4                    -0.0175                  306.9852969025024
5.0E-4                    -0.0165                  306.74787971652665
5.0E-4                    -0.0155                  306.510462530551
5.0E-4                    -0.0145                  306.38720098548396
5.0E-4                    -0.0135                  306.24041821034734
5.0E-4                    -0.0125                  306.0964322812141
5.0E-4                    -0.0115                  305.99921935890114
5.0E-4                    -0.0105                  305.88107845426003
5.0E-4                    -0.0095                  305.7710860084992
5.0E-4                    -0.0085                  305.6706000736379
5.0E-4                    -0.0075                  305.55756552970917
5.0E-4                    -0.0065                  305.4544064908521
5.0E-4                    -0.0055                  305.3336412101537
5.0E-4                    -0.0045                  305.2040645541694
5.0E-4                    -0.0035                  305.0882627237182
5.0E-4                    -0.0025                  304.9118389431162
5.0E-4                    -0.0015                  304.7328416455119
5.0E-4                    -5.0E-4                  304.57018139898867
5.0E-4                    5.0E-4                   304.32503048703956
5.0E-4                    0.0015                   304.0798795750904
5.0E-4                    0.0025                   303.8449977674296
5.0E-4                    0.0035                   303.5378313471165
5.0E-4                    0.0045                   303.23845494364355
5.0E-4                    0.0055                   302.89051832005634
5.0E-4                    0.0065                   302.4162239244228
5.0E-4                    0.0075                   301.99734149285746
5.0E-4                    0.0085                   301.2227838041656
5.0E-4                    0.0095                   300.20000774592364
5.0E-4                    0.0105                   299.34402966605774
5.0E-4                    0.0115                   298.0978050256609
5.0E-4                    0.0125                   296.74427398898575
5.0E-4                    0.0135                   295.62479355080535
5.0E-4                    0.0145                   295.5675648691721
5.0E-4                    0.0155                   295.5103361875389
5.0E-4                    0.0165                   294.4596912381709
5.0E-4                    0.0175                   293.8529992302605
5.0E-4                    0.0185                   293.2887194394887
5.0E-4                    0.0195                   293.1497053804689
5.0E-4                    0.0205                   293.1437020134059
5.0E-4                    0.0215                   293.14513600663923
5.0E-4                    0.0225                   293.14806711919357
5.0E-4                    0.0235                   293.15021140219426
5.0E-4                    0.0245                   293.1514885562673
5.0E-4                    0.0255                   293.15143662888363
5.0E-4                    0.0265                   293.1514125514649
5.0E-4                    0.0275                   293.15144153209883
5.0E-4                    0.0285                   293.1513804597929
5.0E-4                    0.0295                   293.1521287396113
5.0E-4                    0.0305                   293.1540810166953
5.0E-4                    0.0315                   293.15606176014376
0.0015                    -0.0315                  322.2408091448268
0.0015                    -0.0305                  320.8768434465699
0.0015                    -0.0295                  318.77339134638567
0.0015                    -0.0285                  315.8103020716523
0.0015                    -0.0275                  313.32952160528214
0.0015                    -0.0265                  311.83737192268495
0.0015                    -0.0255                  310.4796865917655
0.0015                    -0.0245                  309.22748776010627
0.0015                    -0.0235                  308.7504525743458
0.0015                    -0.0225                  308.26843463092564
0.0015                    -0.0215                  307.6711469418339
0.0015                    -0.0205                  307.45782057430745
0.0015                    -0.0195                  307.1921530797101
0.0015                    -0.0185                  306.8875357996159
0.0015                    -0.0175                  306.7641251054803
0.0015                    -0.0165                  306.5855453737733
0.0015                    -0.0155                  306.4203023852044
0.0015                    -0.0145                  306.3320706410602
0.0015                    -0.0135                  306.20509786670885
0.0015                    -0.0125                  306.1015271936566
0.0015                    -0.0115                  306.0205184839933
0.0015                    -0.0105                  305.908371110488
0.0015                    -0.0095                  305.8212937784416
0.0015                    -0.0085                  305.74018798823965
0.0015                    -0.0075                  305.62715344431103
0.0015                    -0.0065                  305.5393001579583
0.0015                    -0.0055                  305.4435220817155
0.0015                    -0.0045                  305.318121652622
0.0015                    -0.0035                  305.2128342368317
0.0015                    -0.0025                  305.0805803688419
0.0015                    -0.0015                  304.9163311494771
0.0015                    -5.0E-4                  304.7800546891369
0.0015                    5.0E-4                   304.58481685111417
0.0015                    0.0015                   304.3655719701749
0.0015                    0.0025                   304.1702886223057
0.0015                    0.0035                   303.8947633124526
0.0015                    0.0045                   303.64491416956
0.0015                    0.0055                   303.4201910145753
0.0015                    0.0065                   302.97263406592936
0.0015                    0.0075                   302.6765651740304
0.0015                    0.0085                   302.3541909856964
0.0015                    0.0095                   301.3525687693669
0.0015                    0.0105                   300.7001146013372
0.0015                    0.0115                   299.87470183251
0.0015                    0.0125                   298.60062923591704
0.0015                    0.0135                   297.57415799637977
0.0015                    0.0145                   296.9737789962188
0.0015                    0.0155                   296.25426643436634
0.0015                    0.0165                   294.7245210769124
0.0015                    0.0175                   293.8218441481148
0.0015                    0.0185                   293.441852346672
0.0015                    0.0195                   293.13758289563617
0.0015                    0.0205                   293.1331080122451
0.0015                    0.0215                   293.1426923430947
0.0015                    0.0225                   293.1496771307062
0.0015                    0.0235                   293.15154311000543
0.0015                    0.0245                   293.15305418025486
0.0015                    0.0255                   293.15350859292516
0.0015                    0.0265                   293.15360336629675
0.0015                    0.0275                   293.1537408914953
0.0015                    0.0285                   293.1539688768976
0.0015                    0.0295                   293.15551607520064
0.0015                    0.0305                   293.1573231418684
0.0015                    0.0315                   293.16509697209966
0.0025                    -0.0315                  321.3862577524949
0.0025                    -0.0305                  319.4850221142167
0.0025                    -0.0295                  317.06042527164476
0.0025                    -0.0285                  314.1578469355567
0.0025                    -0.0275                  311.98697164829036
0.0025                    -0.0265                  310.60370410875225
0.0025                    -0.0255                  309.22275199363935
0.0025                    -0.0245                  308.42799125608536
0.0025                    -0.0235                  307.9695102647953
0.0025                    -0.0225                  307.51102927350536
0.0025                    -0.0215                  307.2486055209095
0.0025                    -0.0205                  307.0376965689823
0.0025                    -0.0195                  306.8267876170552
0.0025                    -0.0185                  306.7125980694344
0.0025                    -0.0175                  306.589294301946
0.0025                    -0.0165                  306.47818663013913
0.0025                    -0.0155                  306.3992764514603
0.0025                    -0.0145                  306.3104643153207
0.0025                    -0.0135                  306.2270136249314
0.0025                    -0.0125                  306.14541792863986
0.0025                    -0.0115                  306.0638222323484
0.0025                    -0.0105                  305.9592353074587
0.0025                    -0.0095                  305.8785085770553
0.0025                    -0.0085                  305.79778184665184
0.0025                    -0.0075                  305.6926517756035
0.0025                    -0.0065                  305.6049977152492
0.0025                    -0.0055                  305.5173436548949
0.0025                    -0.0045                  305.41201276568836
0.0025                    -0.0035                  305.30695213593157
0.0025                    -0.0025                  305.2018915061747
0.0025                    -0.0015                  305.07606657839256
0.0025                    -5.0E-4                  304.93994284841756
0.0025                    5.0E-4                   304.81146171929043
0.0025                    0.0015                   304.62329505426294
0.0025                    0.0025                   304.42800223238544
0.0025                    0.0035                   304.2482033411293
0.0025                    0.0045                   304.0231781101005
0.0025                    0.0055                   303.7981528790716
0.0025                    0.0065                   303.5773900182163
0.0025                    0.0075                   303.3059640353625
0.0025                    0.0085                   303.0345380525087
0.0025                    0.0095                   302.5996827927956
0.0025                    0.0105                   301.9447732375162
0.0025                    0.0115                   301.28986368223684
0.0025                    0.0125                   300.3977597565377
0.0025                    0.0135                   299.36485476071505
0.0025                    0.0145                   298.2467830759383
0.0025                    0.0155                   296.6329567307026
0.0025                    0.0165                   295.09962970637014
0.0025                    0.0175                   293.85671244721385
0.0025                    0.0185                   293.5479430731462
0.0025                    0.0195                   293.2391736990786
0.0025                    0.0205                   293.13078152471644
0.0025                    0.0215                   293.14036727518294
0.0025                    0.0225                   293.1499421457189
0.0025                    0.0235                   293.15297288646923
0.0025                    0.0245                   293.1544877277368
0.0025                    0.0255                   293.15561875789746
0.0025                    0.0265                   293.15574887206645
0.0025                    0.0275                   293.15587898623545
0.0025                    0.0285                   293.157071402841
0.0025                    0.0295                   293.15854070605064
0.0025                    0.0305                   293.16455157106986
0.0025                    0.0315                   293.17413218405545
0.0035                    -0.0315                  319.5522122754087
0.0035                    -0.0305                  317.28049433369495
0.0035                    -0.0295                  315.057691800776
0.0035                    -0.0285                  312.5563840825826
0.0035                    -0.0275                  311.01625872424313
0.0035                    -0.0265                  309.5466361186069
0.0035                    -0.0255                  308.41199169527454
0.0035                    -0.0245                  308.0982371044344
0.0035                    -0.0235                  307.67271425647857
0.0035                    -0.0225                  307.32352894700097
0.0035                    -0.0215                  307.1832236872664
0.0035                    -0.0205                  306.9773791218794
0.0035                    -0.0195                  306.85310188904964
0.0035                    -0.0185                  306.797311543088
0.0035                    -0.0175                  306.67400777559965
0.0035                    -0.0165                  306.6377447529627
0.0035                    -0.0155                  306.61037969250947
0.0035                    -0.0145                  306.52156755636986
0.0035                    -0.0135                  306.4537105024426
0.0035                    -0.0125                  306.3808032299507
0.0035                    -0.0115                  306.2927884377952
0.0035                    -0.0105                  306.0946826983329
0.0035                    -0.0095                  305.972107130687
0.0035                    -0.0085                  305.8667660972719
0.0035                    -0.0075                  305.67376933078253
0.0035                    -0.0065                  305.56691168846766
0.0035                    -0.0055                  305.463969181648
0.0035                    -0.0045                  305.3365959427899
0.0035                    -0.0035                  305.2313592269977
0.0035                    -0.0025                  305.13557575739566
0.0035                    -0.0015                  305.0392993586113
0.0035                    -5.0E-4                  304.90317562863635
0.0035                    5.0E-4                   304.8127824464307
0.0035                    0.0015                   304.6980333977968
0.0035                    0.0025                   304.50274057591923
0.0035                    0.0035                   304.40242996440304
0.0035                    0.0045                   304.24298599624126
0.0035                    0.0055                   304.02553116714006
0.0035                    0.0065                   303.89683503736893
0.0035                    0.0075                   303.6695650926417
0.0035                    0.0085                   303.42003616676413
0.0035                    0.0095                   303.23081607719683
0.0035                    0.0105                   302.6375977452003
0.0035                    0.0115                   302.0003189096955
0.0035                    0.0125                   301.3589915221688
0.0035                    0.0135                   300.3260865263462
0.0035                    0.0145                   298.5529849271876
0.0035                    0.0155                   296.62479602714
0.0035                    0.0165                   295.0914690028076
0.0035                    0.0175                   294.0831127175909
0.0035                    0.0185                   293.4803186173981
0.0035                    0.0195                   293.2405494102007
0.0035                    0.0205                   293.1367139101142
0.0035                    0.0215                   293.1384620131766
0.0035                    0.0225                   293.14793232577983
0.0035                    0.0235                   293.15514045708767
0.0035                    0.0245                   293.1566552983552
0.0035                    0.0255                   293.1573950204612
0.0035                    0.0265                   293.15778558560555
0.0035                    0.0275                   293.15841574020095
0.0035                    0.0285                   293.15982286632016
0.0035                    0.0295                   293.1612700339282
0.0035                    0.0305                   293.1692261702549
0.0035                    0.0315                   293.18017985837116
0.0045                    -0.0315                  317.940691916582
0.0045                    -0.0305                  315.5123377364922
0.0045                    -0.0295                  313.18502673468254
0.0045                    -0.0285                  311.6028937618262
0.0045                    -0.0275                  310.0513527864705
0.0045                    -0.0265                  308.50542044185636
0.0045                    -0.0255                  308.02717618562826
0.0045                    -0.0245                  307.7134215947882
0.0045                    -0.0235                  307.37591824816184
0.0045                    -0.0225                  307.21999869839914
0.0045                    -0.0215                  307.07969343866455
0.0045                    -0.0205                  306.9401562264459
0.0045                    -0.0195                  306.89250085971895
0.0045                    -0.0185                  306.84484549299196
0.0045                    -0.0175                  306.79993754979733
0.0045                    -0.0165                  306.79730287578616
0.0045                    -0.0155                  306.7946682017749
0.0045                    -0.0145                  306.74466278710986
0.0045                    -0.0135                  306.6793677134957
0.0045                    -0.0125                  306.61407263988156
0.0045                    -0.0115                  306.45650717965594
0.0045                    -0.0105                  306.2584014401937
0.0045                    -0.0095                  306.0657056843187
0.0045                    -0.0085                  305.8917262142518
0.0045                    -0.0075                  305.6987294477624
0.0045                    -0.0065                  305.528825661686
0.0045                    -0.0055                  305.4017454086803
0.0045                    -0.0045                  305.2743721698223
0.0045                    -0.0035                  305.1584172455492
0.0045                    -0.0025                  305.0701279426975
0.0045                    -0.0015                  304.98183863984593
0.0045                    -5.0E-4                  304.8870565888225
0.0045                    5.0E-4                   304.81410317357086
0.0045                    0.0015                   304.7411497583191
0.0045                    0.0025                   304.6303305688331
0.0045                    0.0035                   304.5408244209691
0.0045                    0.0045                   304.451318273105
0.0045                    0.0055                   304.30330521465
0.0045                    0.0065                   304.17460908487885
0.0045                    0.0075                   304.0331661499209
0.0045                    0.0085                   303.8332171333279
0.0045                    0.0095                   303.64399704376063
0.0045                    0.0105                   303.3333200820562
0.0045                    0.0115                   302.716241404935
0.0045                    0.0125                   302.0991627278137
0.0045                    0.0135                   300.9435160817144
0.0045                    0.0145                   298.8591867784368
0.0045                    0.0155                   296.77485747515925
0.0045                    0.0165                   295.4081527757561
0.0045                    0.0175                   294.4010988264283
0.0045                    0.0185                   293.41269416164994
0.0045                    0.0195                   293.2996319419777
0.0045                    0.0205                   293.1957964418913
0.0045                    0.0215                   293.136505217739
0.0045                    0.0225                   293.14592250584064
0.0045                    0.0235                   293.15533979394235
0.0045                    0.0245                   293.15836295225665
0.0045                    0.0255                   293.1590959507539
0.0045                    0.0265                   293.15982229914465
0.0045                    0.0275                   293.161189039844
0.0045                    0.0285                   293.1625863026055
0.0045                    0.0295                   293.16397004328104
0.0045                    0.0305                   293.1757390445016
0.0045                    0.0315                   293.1877142320532
0.0055                    -0.0315                  316.32917155775533
0.0055                    -0.0305                  314.4070022274195
0.0055                    -0.0295                  312.5242053874912
0.0055                    -0.0285                  310.8428254957872
0.0055                    -0.0275                  309.2861134928202
0.0055                    -0.0265                  308.2863970299283
0.0055                    -0.0255                  307.9251232126938
0.0055                    -0.0245                  307.5960031775682
0.0055                    -0.0235                  307.385895080929
0.0055                    -0.0225                  307.26584480981865
0.0055                    -0.0215                  307.1275874860896
0.0055                    -0.0205                  307.12439202250124
0.0055                    -0.0195                  307.10419045539356
0.0055                    -0.0185                  307.05696255834033
0.0055                    -0.0175                  307.14376334222254
0.0055                    -0.0165                  307.149335199364
0.0055                    -0.0155                  307.0997417353863
0.0055                    -0.0145                  306.773356495832
0.0055                    -0.0135                  306.7095377624745
0.0055                    -0.0125                  306.54283851481756
0.0055                    -0.0115                  306.1856511662708
0.0055                    -0.0105                  305.9899898275781
0.0055                    -0.0095                  305.7349384001791
0.0055                    -0.0085                  305.4679495851999
0.0055                    -0.0075                  305.2768092418855
0.0055                    -0.0065                  305.0783298079564
0.0055                    -0.0055                  304.9229675122146
0.0055                    -0.0045                  304.7969041570483
0.0055                    -0.0035                  304.69169218228075
0.0055                    -0.0025                  304.6019257037891
0.0055                    -0.0015                  304.5145157277373
0.0055                    -5.0E-4                  304.4890093868113
0.0055                    5.0E-4                   304.4179682476307
0.0055                    0.0015                   304.35402870998365
0.0055                    0.0025                   304.3525305662029
0.0055                    0.0035                   304.261941401156
0.0055                    0.0045                   304.1924429067315
0.0055                    0.0055                   304.14050025987797
0.0055                    0.0065                   304.0093087114752
0.0055                    0.0075                   303.8920813855631
0.0055                    0.0085                   303.74516268575803
0.0055                    0.0095                   303.55048357825
0.0055                    0.0105                   303.29057018951625
0.0055                    0.0115                   302.7742125898486
0.0055                    0.0125                   302.14591182321266
0.0055                    0.0135                   301.03276866160525
0.0055                    0.0145                   299.0595088049137
0.0055                    0.0155                   297.0206598418232
0.0055                    0.0165                   295.2613898040006
0.0055                    0.0175                   294.2507580911774
0.0055                    0.0185                   293.5605360002128
0.0055                    0.0195                   293.2794508151038
0.0055                    0.0205                   293.17606779355884
0.0055                    0.0215                   293.14195245608505
0.0055                    0.0225                   293.1463652145069
0.0055                    0.0235                   293.15511289552273
0.0055                    0.0245                   293.1606052625866
0.0055                    0.0255                   293.1613627017124
0.0055                    0.0265                   293.16206026386504
0.0055                    0.0275                   293.16300104122274
0.0055                    0.0285                   293.16438478189826
0.0055                    0.0295                   293.16780209365635
0.0055                    0.0305                   293.18099926894945
0.0055                    0.0315                   293.1952486057353
0.0065                    -0.0315                  315.683006489634
0.0065                    -0.0305                  313.73801040140944
0.0065                    -0.0295                  311.8718844866359
0.0065                    -0.0285                  310.190504594932
0.0065                    -0.0275                  308.6171566570958
0.0065                    -0.0265                  308.23509538106015
0.0065                    -0.0255                  307.85303410502456
0.0065                    -0.0245                  307.5354501313001
0.0065                    -0.0235                  307.43609183606316
0.0065                    -0.0225                  307.3367335408262
0.0065                    -0.0215                  307.26380259755535
0.0065                    -0.0205                  307.3082072230774
0.0065                    -0.0195                  307.3439948136824
0.0065                    -0.0185                  307.376621614589
0.0065                    -0.0175                  307.46958409335906
0.0065                    -0.0165                  307.5332281215697
0.0065                    -0.0155                  307.2657378427619
0.0065                    -0.0145                  306.91224553249276
0.0065                    -0.0135                  306.7032442861833
0.0065                    -0.0125                  306.3163766259818
0.0065                    -0.0115                  305.8979386601886
0.0065                    -0.0105                  305.62268019540727
0.0065                    -0.0095                  305.2938745854018
0.0065                    -0.0085                  304.9650689753963
0.0065                    -0.0075                  304.7509404061966
0.0065                    -0.0065                  304.54764405439965
0.0065                    -0.0055                  304.3460503854135
0.0065                    -0.0045                  304.2301555275485
0.0065                    -0.0035                  304.13133598622505
0.0065                    -0.0025                  304.0347289740924
0.0065                    -0.0015                  303.98296420885833
0.0065                    -5.0E-4                  303.9620179420409
0.0065                    5.0E-4                   303.92205411406286
0.0065                    0.0015                   303.90988155843087
0.0065                    0.0025                   303.9229887087937
0.0065                    0.0035                   303.8800967808331
0.0065                    0.0045                   303.855621433378
0.0065                    0.0055                   303.83992902405197
0.0065                    0.0065                   303.7440679414835
0.0065                    0.0075                   303.64257267577614
0.0065                    0.0085                   303.5410774100688
0.0065                    0.0095                   303.3300348633089
0.0065                    0.0105                   303.0394014192991
0.0065                    0.0115                   302.7250331942085