% Model:              SIMBench260525.mph
% Version:            COMSOL 6.2.0.339
% Date:               May 27 2026, 17:52
% Dimension:          2
% Nodes:              4096
% Expressions:        1
% Description:        温度
% Length unit:        m
% x                       y                        T (K)
% mirrored_by_python_y_to_minus_y, coord_match_decimals=12
0.0005 -0.0315 294.514904396
0.0005 -0.0305 294.216470279
0.0005 -0.0295 293.870709286
0.0005 -0.0285 293.484898685
0.0005 -0.0275 293.275594496
0.0005 -0.0265 293.211338446
0.0005 -0.0255 293.146391102
0.0005 -0.0245 293.130016463
0.0005 -0.0235 293.157838914
0.0005 -0.0225 293.694010822
0.0005 -0.0215 295.597117686
0.0005 -0.0205 297.618729605
0.0005 -0.0195 302.071050833
0.0005 -0.0185 303.660096908
0.0005 -0.0175 305.249142984
0.0005 -0.0165 310.584424929
0.0005 -0.0155 318.041080685
0.0005 -0.0145 325.374885586
0.0005 -0.0135 327.857266607
0.0005 -0.0125 331.058266848
0.0005 -0.0115 333.892463349
0.0005 -0.0105 334.594319588
0.0005 -0.0095 335.461285156
0.0005 -0.0085 336.089851951
0.0005 -0.0075 336.083093173
0.0005 -0.0065 336.122873248
0.0005 -0.0055 336.037358731
0.0005 -0.0045 335.872271867
0.0005 -0.0035 335.754464217
0.0005 -0.0025 335.566368118
0.0005 -0.0015 335.392497692
0.0005 -0.0005 335.233474083
0.0005 0.0005 335.073065678
0.0005 0.0015 334.98136985
0.0005 0.0025 334.891577914
0.0005 0.0035 334.857025221
0.0005 0.0045 334.906849898
0.0005 0.0055 334.956674574
0.0005 0.0065 335.089781735
0.0005 0.0075 335.210636865
0.0005 0.0085 335.331491995
0.0005 0.0095 335.60801237
0.0005 0.0105 335.691293475
0.0005 0.0115 335.785723473
0.0005 0.0125 336.184679302
0.0005 0.0135 336.397882329
0.0005 0.0145 336.63804681
0.0005 0.0155 337.000547732
0.0005 0.0165 337.316212441
0.0005 0.0175 337.649284251
0.0005 0.0185 338.080000792
0.0005 0.0195 338.536573095
0.0005 0.0205 338.957415753
0.0005 0.0215 339.570164973
0.0005 0.0225 340.27371367
0.0005 0.0235 340.898512522
0.0005 0.0245 342.014643782
0.0005 0.0255 343.236081348
0.0005 0.0265 344.544887189
0.0005 0.0275 346.703951384
0.0005 0.0285 348.902994289
0.0005 0.0295 351.419247095
0.0005 0.0305 353.020293522
0.0005 0.0315 354.617071975
0.0015 -0.0315 294.43793274
0.0015 -0.0305 294.175253534
0.0015 -0.0295 293.851843681
0.0015 -0.0285 293.573294268
0.0015 -0.0275 293.294744855
0.0015 -0.0265 293.223931114
0.0015 -0.0255 293.155944097
0.0015 -0.0245 293.0867168
0.0015 -0.0235 293.111347646
0.0015 -0.0225 294.267086851
0.0015 -0.0215 295.665718734
0.0015 -0.0205 298.905724231
0.0015 -0.0195 305.150116455
0.0015 -0.0185 309.022682418
0.0015 -0.0175 312.217367102
0.0015 -0.0165 317.11224087
0.0015 -0.0155 323.724614991
0.0015 -0.0145 327.767539754
0.0015 -0.0135 329.742874342
0.0015 -0.0125 332.694607939
0.0015 -0.0115 333.900928478
0.0015 -0.0105 334.419123274
0.0015 -0.0095 335.25578855
0.0015 -0.0085 335.301334688
0.0015 -0.0075 335.215811814
0.0015 -0.0065 335.25559189
0.0015 -0.0055 334.958059539
0.0015 -0.0045 334.677352644
0.0015 -0.0035 334.547341544
0.0015 -0.0025 334.280537471
0.0015 -0.0015 334.041046592
0.0015 -0.0005 333.881567905
0.0015 0.0005 333.720166169
0.0015 0.0015 333.584879332
0.0015 0.0025 333.5166207
0.0015 0.0035 333.498233848
0.0015 0.0045 333.512247167
0.0015 0.0055 333.609038411
0.0015 0.0065 333.772858868
0.0015 0.0075 333.911568649
0.0015 0.0085 334.175394537
0.0015 0.0095 334.570152764
0.0015 0.0105 334.749479555
0.0015 0.0115 335.114011927
0.0015 0.0125 335.64334129
0.0015 0.0135 335.922050643
0.0015 0.0145 336.282929152
0.0015 0.0155 336.696505537
0.0015 0.0165 337.02212998
0.0015 0.0175 337.39790056
0.0015 0.0185 337.784677408
0.0015 0.0195 338.241249711
0.0015 0.0205 338.601828853
0.0015 0.0215 338.994341524
0.0015 0.0225 339.687419449
0.0015 0.0235 340.221634076
0.0015 0.0245 340.898078409
0.0015 0.0255 342.153283714
0.0015 0.0265 343.521509406
0.0015 0.0275 345.139051063
0.0015 0.0285 347.651866128
0.0015 0.0295 350.518673048
0.0015 0.0305 352.542117451
0.0015 0.0315 353.974082663
0.0025 -0.0315 294.360961085
0.0025 -0.0305 294.135315744
0.0025 -0.0295 293.904351908
0.0025 -0.0285 293.647573079
0.0025 -0.0275 293.383140438
0.0025 -0.0265 293.234724391
0.0025 -0.0255 293.165497093
0.0025 -0.0245 293.096023923
0.0025 -0.0235 293.546729048
0.0025 -0.0225 294.729281909
0.0025 -0.0215 295.911834771
0.0025 -0.0205 300.856833235
0.0025 -0.0195 307.110021207
0.0025 -0.0185 313.473111901
0.0025 -0.0175 318.819940751
0.0025 -0.0165 323.758760422
0.0025 -0.0155 327.93191617
0.0025 -0.0145 329.911489701
0.0025 -0.0135 331.891063232
0.0025 -0.0125 333.284188917
0.0025 -0.0115 333.802651775
0.0025 -0.0105 334.321114632
0.0025 -0.0095 334.512499007
0.0025 -0.0085 334.423956789
0.0025 -0.0075 334.335414571
0.0025 -0.0065 334.117545914
0.0025 -0.0055 333.810880306
0.0025 -0.0045 333.504214699
0.0025 -0.0035 333.233891122
0.0025 -0.0025 332.967402067
0.0025 -0.0015 332.700913012
0.0025 -0.0005 332.523172212
0.0025 0.0005 332.361791049
0.0025 0.0015 332.200409886
0.0025 0.0025 332.164269354
0.0025 0.0035 332.14588281
0.0025 0.0045 332.129335378
0.0025 0.0055 332.280986481
0.0025 0.0065 332.444801781
0.0025 0.0075 332.625012845
0.0025 0.0085 333.016938687
0.0025 0.0095 333.411574405
0.0025 0.0105 333.8636827
0.0025 0.0115 334.392109306
0.0025 0.0125 334.920535911
0.0025 0.0135 335.53142757
0.0025 0.0145 335.945257388
0.0025 0.0155 336.359087205
0.0025 0.0165 336.909371587
0.0025 0.0175 337.296818636
0.0025 0.0185 337.684265685
0.0025 0.0195 338.045898162
0.0025 0.0205 338.404431849
0.0025 0.0215 338.762965537
0.0025 0.0225 339.159046109
0.0025 0.0235 339.718710078
0.0025 0.0245 340.278374046
0.0025 0.0255 341.224274114
0.0025 0.0265 342.612236951
0.0025 0.0275 344.06976547
0.0025 0.0285 346.533331803
0.0025 0.0295 349.393339876
0.0025 0.0305 351.614047762
0.0025 0.0315 353.331093352
0.0035 -0.0315 294.362677996
0.0035 -0.0305 294.149328737
0.0035 -0.0295 293.924096614
0.0035 -0.0285 293.667317784
0.0035 -0.0275 293.393052034
0.0035 -0.0265 293.225426996
0.0035 -0.0255 293.150127482
0.0035 -0.0245 293.077921066
0.0035 -0.0235 293.510416383
0.0035 -0.0225 294.470648162
0.0035 -0.0215 296.851904346
0.0035 -0.0205 301.387772334
0.0035 -0.0195 307.589827286
0.0035 -0.0185 314.875003561
0.0035 -0.0175 321.977305457
0.0035 -0.0165 326.916125129
0.0035 -0.0155 328.913372387
0.0035 -0.0145 330.573975584
0.0035 -0.0135 332.553549115
0.0035 -0.0125 332.712129228
0.0035 -0.0115 333.043491049
0.0035 -0.0105 333.492243173
0.0035 -0.0095 333.154777284
0.0035 -0.0085 332.988800838
0.0035 -0.0075 332.855119114
0.0035 -0.0065 332.535019277
0.0035 -0.0055 332.225746211
0.0035 -0.0045 331.94734879
0.0035 -0.0035 331.733686141
0.0035 -0.0025 331.471320922
0.0035 -0.0015 331.260169061
0.0035 -0.0005 331.127202041
0.0035 0.0005 330.965820877
0.0035 0.0015 330.862160326
0.0035 0.0025 330.816695822
0.0035 0.0035 330.798309278
0.0035 0.0045 330.837537222
0.0035 0.0055 330.933963375
0.0035 0.0065 331.097778675
0.0035 0.0075 331.355100403
0.0035 0.0085 331.683410679
0.0035 0.0095 332.078046397
0.0035 0.0105 332.723987306
0.0035 0.0115 333.339976636
0.0035 0.0125 333.868403241
0.0035 0.0135 334.977951481
0.0035 0.0145 335.716009701
0.0035 0.0155 336.17583815
0.0035 0.0165 337.409938803
0.0035 0.0175 338.096770157
0.0035 0.0185 338.470762424
0.0035 0.0195 338.77397113
0.0035 0.0205 339.118483932
0.0035 0.0215 339.392495875
0.0035 0.0225 339.440964934
0.0035 0.0235 339.926406371
0.0035 0.0245 340.3676132
0.0035 0.0255 340.655935592
0.0035 0.0265 341.932320124
0.0035 0.0275 343.689119071
0.0035 0.0285 345.593892045
0.0035 0.0295 348.237010495
0.0035 0.0305 350.212595286
0.0035 0.0315 352.276996245
0.0045 -0.0315 294.377319731
0.0045 -0.0305 294.163747286
0.0045 -0.0295 293.934643056
0.0045 -0.0285 293.654394799
0.0045 -0.0275 293.373382557
0.0045 -0.0265 293.223955518
0.0045 -0.0255 293.134211461
0.0045 -0.0245 293.206173958
0.0045 -0.0235 293.725929761
0.0045 -0.0225 294.245685563
0.0045 -0.0215 298.405565386
0.0045 -0.0205 302.941433374
0.0045 -0.0195 308.476256995
0.0045 -0.0185 316.276895222
0.0045 -0.0175 324.077533449
0.0045 -0.0165 328.507994387
0.0045 -0.0155 329.920888695
0.0045 -0.0145 331.333783003
0.0045 -0.0135 332.13459691
0.0045 -0.0125 332.218476083
0.0045 -0.0115 332.302355255
0.0045 -0.0105 332.209194364
0.0045 -0.0095 331.871728475
0.0045 -0.0085 331.553644886
0.0045 -0.0075 331.278182134
0.0045 -0.0065 330.958082297
0.0045 -0.0055 330.640612116
0.0045 -0.0045 330.419103181
0.0045 -0.0035 330.205440532
0.0045 -0.0025 329.978151499
0.0045 -0.0015 329.846264668
0.0045 -0.0005 329.714377837
0.0045 0.0005 329.584037423
0.0045 0.0015 329.533918658
0.0045 0.0025 329.483799893
0.0045 0.0035 329.472460021
0.0045 0.0045 329.545739066
0.0045 0.0055 329.61901811
0.0045 0.0065 329.794639684
0.0045 0.0075 330.085187961
0.0045 0.0085 330.375736238
0.0045 0.0095 330.879307793
0.0045 0.0105 331.571426285
0.0045 0.0115 332.263544777
0.0045 0.0125 333.157604977
0.0045 0.0135 334.29852587
0.0045 0.0145 335.439446763
0.0045 0.0155 336.444194714
0.0045 0.0165 337.678295367
0.0045 0.0175 338.896721678
0.0045 0.0185 339.219530743
0.0045 0.0195 339.52273945
0.0045 0.0205 339.832536016
0.0045 0.0215 339.916876313
0.0045 0.0225 339.965345372
0.0045 0.0235 340.128622889
0.0045 0.0245 340.416945281
0.0045 0.0255 340.705267674
0.0045 0.0265 341.401019244
0.0045 0.0275 343.3044976
0.0045 0.0285 345.207975955
0.0045 0.0295 347.16275087
0.0045 0.0305 349.377676733
0.0045 0.0315 351.645828632
0.0055 -0.0315 294.391961466
0.0055 -0.0305 294.13806183
0.0055 -0.0295 293.882228144
0.0055 -0.0285 293.620047844
0.0055 -0.0275 293.35371308
0.0055 -0.0265 293.222851902
0.0055 -0.0255 293.138277712
0.0055 -0.0245 293.249727396
0.0055 -0.0235 293.697966283
0.0055 -0.0225 294.920498977
0.0055 -0.0215 298.270288302
0.0055 -0.0205 302.824114635
0.0055 -0.0195 310.022686537
0.0055 -0.0185 317.73476977
0.0055 -0.0175 325.221096953
0.0055 -0.0165 328.73465646
0.0055 -0.0155 330.166950157
0.0055 -0.0145 331.359107768
0.0055 -0.0135 331.507926351
0.0055 -0.0125 331.592109196
0.0055 -0.0115 331.577495133
0.0055 -0.0105 331.305295861
0.0055 -0.0095 330.967066986
0.0055 -0.0085 330.700803722
0.0055 -0.0075 330.460711235
0.0055 -0.0065 330.137890628
0.0055 -0.0055 329.919204937
0.0055 -0.0045 329.739670532
0.0055 -0.0035 329.522273016
0.0055 -0.0025 329.378601489
0.0055 -0.0015 329.253616366
0.0055 -0.0005 329.118569442
0.0055 0.0005 329.014656552
0.0055 0.0015 328.95702082
0.0055 0.0025 328.907135514
0.0055 0.0035 328.826212643
0.0055 0.0045 328.888136431
0.0055 0.0055 328.961707814
0.0055 0.0065 328.923592885
0.0055 0.0075 329.214315821
0.0055 0.0085 329.491866305
0.0055 0.0095 329.656789379
0.0055 0.0105 330.348780744
0.0055 0.0115 331.009774099
0.0055 0.0125 331.66290564
0.0055 0.0135 332.796946857
0.0055 0.0145 333.999400695
0.0055 0.0155 335.336147615
0.0055 0.0165 336.558904302
0.0055 0.0175 338.143684412
0.0055 0.0185 339.617228848
0.0055 0.0195 339.918334797
0.0055 0.0205 340.460337455
0.0055 0.0215 340.886961162
0.0055 0.0225 340.937457994
0.0055 0.0235 340.759961447
0.0055 0.0245 340.863885992
0.0055 0.0255 341.186609357
0.0055 0.0265 341.563898094
0.0055 0.0275 342.873284054
0.0055 0.0285 344.803807648
0.0055 0.0295 347.105020229
0.0055 0.0305 349.053395855
0.0055 0.0315 351.014661019
0.0065 -0.0315 294.351888476
0.0065 -0.0305 294.085594413
0.0065 -0.0295 293.829813232
0.0065 -0.0285 293.567632932
0.0065 -0.0275 293.33166269
0.0065 -0.0265 293.233178047
0.0065 -0.0255 293.152727243
0.0065 -0.0245 293.286728525
0.0065 -0.0235 293.628318544
0.0065 -0.0225 295.78444266
0.0065 -0.0215 298.336989829
0.0065 -0.0205 304.280308451
0.0065 -0.0195 311.702439399
0.0065 -0.0185 319.199383737
0.0065 -0.0175 324.028717711
0.0065 -0.0165 327.638804881
0.0065 -0.0155 330.24073774
0.0065 -0.0145 330.646240142
0.0065 -0.0135 330.813675134
0.0065 -0.0125 330.929485362
0.0065 -0.0115 330.717476682
0.0065 -0.0105 330.480565222
0.0065 -0.0095 330.175285069
0.0065 -0.0085 330.007548845
0.0065 -0.0075 329.839812621
0.0065 -0.0065 329.56745801
0.0065 -0.0055 329.441597693
0.0065 -0.0045 329.315737375
0.0065 -0.0035 329.128964837
0.0065 -0.0025 329.027999785
0.0065 -0.0015 328.923740087
0.0065 -0.0005 328.80334727
0.0065 0.0005 328.710540156
0.0065 0.0015 328.626743866
0.0065 0.0025 328.56018958
0.0065 0.0035 328.473596718
0.0065 0.0045 328.437741662
0.0065 0.0055 328.438172561
0.0065 0.0065 328.381922501
0.0065 0.0075 328.473107131
0.0065 0.0085 328.621780826
0.0065 0.0095 328.701048471
0.0065 0.0105 329.103688517
0.0065 0.0115 329.651031118
0.0065 0.0125 330.156363747
0.0065 0.0135 331.050034101
0.0065 0.0145 332.406281308
0.0065 0.0155 333.793208029
0.0065 0.0165 335.069566036
0.0065 0.0175 337.242133771
0.0065 0.0185 339.438456495
0.0065 0.0195 340.271182694
0.0065 0.0205 341.067872702
0.0065 0.0215 341.864562711
0.0065 0.0225 341.924090521
0.0065 0.0235 341.609460042
0.0065 0.0245 341.350286476
0.0065 0.0255 341.691085949
0.0065 0.0265 342.084484984
0.0065 0.0275 342.477884018
0.0065 0.0285 344.72621425
0.0065 0.0295 347.02742683
0.0065 0.0305 349.003855597
0.0065 0.0315 350.950074173
0.0075 -0.0315 294.330270014
0.0075 -0.0305 294.056713841
0.0075 -0.0295 293.784099471
0.0075 -0.0285 293.555783796
0.0075 -0.0275 293.32053874
0.0075 -0.0265 293.219813468
0.0075 -0.0255 293.156405176
0.0075 -0.0245 293.474977367
0.0075 -0.0235 294.045457336
0.0075 -0.0225 295.886010363
0.0075 -0.0215 299.199584379
0.0075 -0.0205 304.723932014
0.0075 -0.0195 312.258718655
0.0075 -0.0185 319.587387842
0.0075 -0.0175 324.297033304
0.0075 -0.0165 327.779422393
0.0075 -0.0155 329.983640087
0.0075 -0.0145 330.193378738
0.0075 -0.0135 330.354418319
0.0075 -0.0125 330.369663465
0.0075 -0.0115 330.132995354
0.0075 -0.0105 329.896327242
0.0075 -0.0095 329.74469463
0.0075 -0.0085 329.574718904
0.0075 -0.0075 329.404743177
0.0075 -0.0065 329.30216215
0.0075 -0.0055 329.173205594
0.0075 -0.0045 329.044249038
0.0075 -0.0035 328.962751392
0.0075 -0.0025 328.859213401
0.0075 -0.0015 328.75567541
0.0075 -0.0005 328.673307456
0.0075 0.0005 328.579722653
0.0075 0.0015 328.485247338
0.0075 0.0025 328.39039735
0.0075 0.0035 328.304222591
0.0075 0.0045 328.203955307
0.0075 0.0055 328.11478085
0.0075 0.0065 328.058648907
0.0075 0.0075 327.96114241
0.0075 0.0085 327.98807405
0.0075 0.0095 328.067503672
0.0075 0.0105 328.062462452
0.0075 0.0115 328.516645888
0.0075 0.0125 329.024686371
0.0075 0.0135 329.354309971
0.0075 0.0145 330.738887027
0.0075 0.0155 332.123464084
0.0075 0.0165 333.334056444
0.0075 0.0175 335.508243064
0.0075 0.0185 337.682429684
0.0075 0.0195 340.008011335
0.0075 0.0205 340.798747282
0.0075 0.0215 341.589483229
0.0075 0.0225 342.491230093
0.0075 0.0235 342.237327736
0.0075 0.0245 341.983425378
0.0075 0.0255 342.137796964
0.0075 0.0265 342.476971435
0.0075 0.0275 342.923629057
0.0075 0.0285 344.982497946
0.0075 0.0295 347.041366835
0.0075 0.0305 348.965950259
0.0075 0.0315 350.918312882
0.0085 -0.0315 294.305791521
0.0085 -0.0305 294.010914872
0.0085 -0.0295 293.72717304
0.0085 -0.0285 293.52053019
0.0085 -0.0275 293.309414789
0.0085 -0.0265 293.220745648
0.0085 -0.0255 293.197789641
0.0085 -0.0245 293.571278604
0.0085 -0.0235 294.403132023
0.0085 -0.0225 296.363934201
0.0085 -0.0215 300.658742964
0.0085 -0.0205 304.953551728
0.0085 -0.0195 312.151581685
0.0085 -0.0185 319.196449211
0.0085 -0.0175 325.772515553
0.0085 -0.0165 329.026776831
0.0085 -0.0155 329.610603779
0.0085 -0.0145 330.063120688
0.0085 -0.0135 330.183359585
0.0085 -0.0125 330.075836938
0.0085 -0.0115 329.917027592
0.0085 -0.0105 329.719066957
0.0085 -0.0095 329.627427997
0.0085 -0.0085 329.496590027
0.0085 -0.0075 329.367973387
0.0085 -0.0065 329.310595987
0.0085 -0.0055 329.207335335
0.0085 -0.0045 329.115284578
0.0085 -0.0035 329.063822795
0.0085 -0.0025 328.973013528
0.0085 -0.0015 328.889174755
0.0085 -0.0005 328.820437307
0.0085 0.0005 328.729890064
0.0085 0.0015 328.626746144
0.0085 0.0025 328.518904225
0.0085 0.0035 328.432468103
0.0085 0.0045 328.282302202
0.0085 0.0055 328.124391977
0.0085 0.0065 328.068260035
0.0085 0.0075 327.881105293
0.0085 0.0085 327.735325625
0.0085 0.0095 327.814755248
0.0085 0.0105 327.675573764
0.0085 0.0115 327.734978706
0.0085 0.0125 328.207454188
0.0085 0.0135 328.339030377
0.0085 0.0145 328.96605588
0.0085 0.0155 330.267526801
0.0085 0.0165 331.239832198
0.0085 0.0175 332.761580655
0.0085 0.0185 335.142408969
0.0085 0.0195 337.918676021
0.0085 0.0205 339.559858379
0.0085 0.0215 340.883230416
0.0085 0.0225 342.560089245
0.0085 0.0235 342.428260502
0.0085 0.0245 342.577669319
0.0085 0.0255 342.715973022
0.0085 0.0265 342.847735866
0.0085 0.0275 343.421854843
0.0085 0.0285 345.428007443
0.0085 0.0295 347.389226529
0.0085 0.0305 349.165755199
0.0085 0.0315 350.907078762
0.0095 -0.0315 294.264928248
0.0095 -0.0305 293.954975501
0.0095 -0.0295 293.670246609
0.0095 -0.0285 293.464343519
0.0095 -0.0275 293.293129552
0.0095 -0.0265 293.260159803
0.0095 -0.0255 293.253101349
0.0095 -0.0245 293.546241702
0.0095 -0.0235 294.623663121
0.0095 -0.0225 296.423715697
0.0095 -0.0215 301.014844395
0.0095 -0.0205 305.605973093
0.0095 -0.0195 312.337804202
0.0095 -0.0185 319.206366109
0.0095 -0.0175 326.074928015
0.0095 -0.0165 328.722097783
0.0095 -0.0155 329.285434464
0.0095 -0.0145 329.848771144
0.0095 -0.0135 329.903790607
0.0095 -0.0125 329.80375092
0.0095 -0.0115 329.703711233
0.0095 -0.0105 329.621367936
0.0095 -0.0095 329.529978591
0.0095 -0.0085 329.438589245
0.0095 -0.0075 329.393614893
0.0095 -0.0065 329.330215793
0.0095 -0.0055 329.281787483
0.0095 -0.0045 329.225104618
0.0095 -0.0035 329.168421752
0.0095 -0.0025 329.115754314
0.0095 -0.0015 329.041635185
0.0095 -0.0005 328.967516057
0.0095 0.0005 328.884995552
0.0095 0.0015 328.777101797
0.0095 0.0025 328.669208043
0.0095 0.0035 328.537966469
0.0095 0.0045 328.37194028
0.0095 0.0055 328.20591409
0.0095 0.0065 328.016256369
0.0095 0.0075 327.811385879
0.0095 0.0085 327.606515389
0.0095 0.0095 327.435128858
0.0095 0.0105 327.292939835
0.0095 0.0115 327.150750813
0.0095 0.0125 327.203391421
0.0095 0.0135 327.341229552
0.0095 0.0145 327.479067683
0.0095 0.0155 328.281222847
0.0095 0.0165 329.276359967
0.0095 0.0175 330.271497087
0.0095 0.0185 332.683516851
0.0095 0.0195 335.426526216
0.0095 0.0205 338.1359145
0.0095 0.0215 339.742234238
0.0095 0.0225 341.314305891
0.0095 0.0235 343.072236074
0.0095 0.0245 343.222755131
0.0095 0.0255 343.360844918
0.0095 0.0265 343.489946198
0.0095 0.0275 343.959526189
0.0095 0.0285 345.772487854
0.0095 0.0295 347.733706941
0.0095 0.0305 349.507960287
0.0095 0.0315 351.197129025
0.0105 -0.0315 294.240781208
0.0105 -0.0305 293.926923153
0.0105 -0.0295 293.626063243
0.0105 -0.0285 293.466148447
0.0105 -0.0275 293.29493448
0.0105 -0.0265 293.25762804
0.0105 -0.0255 293.271023239
0.0105 -0.0245 293.821750804
0.0105 -0.0235 295.358228018
0.0105 -0.0225 296.847088701
0.0105 -0.0215 300.693897933
0.0105 -0.0205 306.842287043
0.0105 -0.0195 313.700055149
0.0105 -0.0185 320.567455766
0.0105 -0.0175 325.942777515
0.0105 -0.0165 329.222927265
0.0105 -0.0155 329.786263945
0.0105 -0.0145 330.122367971
0.0105 -0.0135 330.007169897
0.0105 -0.0125 329.90713021
0.0105 -0.0115 329.861237689
0.0105 -0.0105 329.855564459
0.0105 -0.0095 329.764175114
0.0105 -0.0085 329.80013828
0.0105 -0.0075 329.875849359
0.0105 -0.0065 329.812450259
0.0105 -0.0055 329.925121001
0.0105 -0.0045 330.015530197
0.0105 -0.0035 329.958847331
0.0105 -0.0025 330.063814743
0.0105 -0.0015 330.095978449
0.0105 -0.0005 330.02185932
0.0105 0.0005 330.000098856
0.0105 0.0015 329.924151323
0.0105 0.0025 329.816257568
0.0105 0.0035 329.570499259
0.0105 0.0045 329.385500314
0.0105 0.0055 329.192392106
0.0105 0.0065 328.766011783
0.0105 0.0075 328.531217909
0.0105 0.0085 328.263819209
0.0105 0.0095 327.764915303
0.0105 0.0105 327.615377803
0.0105 0.0115 327.377196049
0.0105 0.0125 326.984462793
0.0105 0.0135 327.122300923
0.0105 0.0145 327.115730808
0.0105 0.0155 327.133978438
0.0105 0.0165 328.129115558
0.0105 0.0175 328.759345409
0.0105 0.0185 329.657346636
0.0105 0.0195 332.400356001
0.0105 0.0205 335.042327478
0.0105 0.0215 337.411132336
0.0105 0.0225 339.0049306
0.0105 0.0235 340.90316341
0.0105 0.0245 342.811295326
0.0105 0.0255 343.993877187
0.0105 0.0265 344.113457951
0.0105 0.0275 344.619920574
0.0105 0.0285 346.400858933
0.0105 0.0295 348.157323743
0.0105 0.0305 349.75703114
0.0105 0.0315 351.423228672
0.0115 -0.0315 294.214238182
0.0115 -0.0305 293.891813593
0.0115 -0.0295 293.58727223
0.0115 -0.0285 293.440969099
0.0115 -0.0275 293.294665968
0.0115 -0.0265 293.302517777
0.0115 -0.0255 293.419412898
0.0115 -0.0245 293.967170756
0.0115 -0.0235 295.700677733
0.0115 -0.0225 297.43418471
0.0115 -0.0215 301.351459902
0.0115 -0.0205 308.209228009
0.0115 -0.0195 315.066996115
0.0115 -0.0185 321.277841397
0.0115 -0.0175 324.928389675
0.0115 -0.0165 328.578937952
0.0115 -0.0155 330.287093427
0.0115 -0.0145 330.23642978
0.0115 -0.0135 330.119509202
0.0115 -0.0125 330.024082992
0.0115 -0.0115 330.031468996
0.0115 -0.0105 330.038855001
0.0115 -0.0095 330.045169949
0.0115 -0.0085 330.165897144
0.0115 -0.0075 330.286624339
0.0115 -0.0065 330.366279347
0.0115 -0.0055 330.559735107
0.0115 -0.0045 330.753190866
0.0115 -0.0035 330.828821522
0.0115 -0.0025 330.979522665
0.0115 -0.0015 331.130223808
0.0115 -0.0005 331.105056691
0.0115 0.0005 331.090276933
0.0115 0.0015 331.071200848
0.0115 0.0025 330.880043529
0.0115 0.0035 330.633374784
0.0115 0.0045 330.399060349
0.0115 0.0055 330.048407783
0.0115 0.0065 329.62202746
0.0115 0.0075 329.251049939
0.0115 0.0085 328.805061063
0.0115 0.0095 328.306157157
0.0115 0.0105 327.93781577
0.0115 0.0115 327.510759548
0.0115 0.0125 327.056627673
0.0115 0.0135 326.899277031
0.0115 0.0145 326.688921147
0.0115 0.0155 326.478565263
0.0115 0.0165 326.880537944
0.0115 0.0175 327.232843159
0.0115 0.0185 327.585148375
0.0115 0.0195 329.329296653
0.0115 0.0205 331.948740457
0.0115 0.0215 334.568184261
0.0115 0.0225 336.788681219
0.0115 0.0235 339.20931107
0.0115 0.0245 341.629940922
0.0115 0.0255 343.18724242
0.0115 0.0265 344.350769597
0.0115 0.0275 345.280314959
0.0115 0.0285 346.977019843
0.0115 0.0295 348.665428337
0.0115 0.0305 350.191925443
0.0115 0.0315 351.693400155
0.0125 -0.0315 294.177476341
0.0125 -0.0305 293.8538265
0.0125 -0.0295 293.548481216
0.0125 -0.0285 293.408980185
0.0125 -0.0275 293.310888091
0.0125 -0.0265 293.419189319
0.0125 -0.0255 293.602955246
0.0125 -0.0245 294.112590709
0.0125 -0.0235 295.8294015
0.0125 -0.0225 297.499552815
0.0125 -0.0215 302.043249356
0.0125 -0.0205 308.759621174
0.0125 -0.0195 315.651968189
0.0125 -0.0185 322.263818713
0.0125 -0.0175 325.629526065
0.0125 -0.0165 328.769135749
0.0125 -0.0155 330.489203039
0.0125 -0.0145 330.392042483
0.0125 -0.0135 330.286749993
0.0125 -0.0125 330.351141139
0.0125 -0.0115 330.414407355
0.0125 -0.0105 330.427999291
0.0125 -0.0095 330.755397017
0.0125 -0.0085 330.924403655
0.0125 -0.0075 331.033878304
0.0125 -0.0065 331.583549929
0.0125 -0.0055 331.765422438
0.0125 -0.0045 331.942089658
0.0125 -0.0035 332.501817719
0.0125 -0.0025 332.645740288
0.0125 -0.0015 332.811474676
0.0125 -0.0005 333.086117583
0.0125 0.0005 333.062326586
0.0125 0.0015 333.027951884
0.0125 0.0025 332.87774791
0.0125 0.0035 332.631850495
0.0125 0.0045 332.284094388
0.0125 0.0055 331.795659487
0.0125 0.0065 331.375583147
0.0125 0.0075 330.746682649
0.0125 0.0085 330.090769905
0.0125 0.0095 329.58400262
0.0125 0.0105 328.821130118
0.0125 0.0115 328.231310428
0.0125 0.0125 327.762197757
0.0125 0.0135 326.991357577
0.0125 0.0145 326.741332952
0.0125 0.0155 326.544845091
0.0125 0.0165 326.051308359
0.0125 0.0175 326.461733849
0.0125 0.0185 326.873760615
0.0125 0.0195 326.792229695
0.0125 0.0205 329.322811596
0.0125 0.0215 331.866717873
0.0125 0.0225 334.158867421
0.0125 0.0235 337.830770793
0.0125 0.0245 340.448586518
0.0125 0.0255 341.990181322
0.0125 0.0265 343.748753768
0.0125 0.0275 345.749658206
0.0125 0.0285 347.481877173
0.0125 0.0295 349.173532931
0.0125 0.0305 350.6988153
0.0125 0.0315 352.056889843
0.0135 -0.0315 294.141657272
0.0135 -0.0305 293.817938418
0.0135 -0.0295 293.533165061
0.0135 -0.0285 293.45046835
0.0135 -0.0275 293.352376256
0.0135 -0.0265 293.460640781
0.0135 -0.0255 293.658326335
0.0135 -0.0245 294.220758507
0.0135 -0.0235 295.859509797
0.0135 -0.0225 297.529661112
0.0135 -0.0215 302.925515138
0.0135 -0.0205 309.346090804
0.0135 -0.0195 315.983285914
0.0135 -0.0185 322.559860803
0.0135 -0.0175 327.299025425
0.0135 -0.0165 329.664647491
0.0135 -0.0155 330.53366468
0.0135 -0.0145 330.565966317
0.0135 -0.0135 330.485235223
0.0135 -0.0125 330.66277573
0.0135 -0.0115 330.852551053
0.0135 -0.0105 330.992437999
0.0135 -0.0095 331.42046342
0.0135 -0.0085 331.805385694
0.0135 -0.0075 332.136309311
0.0135 -0.0065 332.758965674
0.0135 -0.0055 333.217443586
0.0135 -0.0045 333.66473782
0.0135 -0.0035 334.316347016
0.0135 -0.0025 334.698408798
0.0135 -0.0015 335.016939086
0.0135 -0.0005 335.41716407
0.0135 0.0005 335.527818556
0.0135 0.0015 335.462060972
0.0135 0.0025 335.385952324
0.0135 0.0035 335.169386098
0.0135 0.0045 334.625521556
0.0135 0.0055 334.055751792
0.0135 0.0065 333.612433427
0.0135 0.0075 332.700390841
0.0135 0.0085 331.793235268
0.0135 0.0095 331.227512799
0.0135 0.0105 330.225056637
0.0135 0.0115 329.325955369
0.0135 0.0125 328.77836017
0.0135 0.0135 327.797360325
0.0135 0.0145 327.105666466
0.0135 0.0155 326.770593659
0.0135 0.0165 326.179577488
0.0135 0.0175 325.996918496
0.0135 0.0185 326.219111966
0.0135 0.0195 326.052367323
0.0135 0.0205 326.803877965
0.0135 0.0215 328.613397386
0.0135 0.0225 330.651204936
0.0135 0.0235 334.323108308
0.0135 0.0245 337.87647973
0.0135 0.0255 342.087414954
0.0135 0.0265 344.183449091
0.0135 0.0275 346.183571418
0.0135 0.0285 347.915790385
0.0135 0.0295 349.670861114
0.0135 0.0305 350.964573915
0.0135 0.0315 352.303809461
0.0145 -0.0315 294.114916992
0.0145 -0.0305 293.812521646
0.0145 -0.0295 293.533174962
0.0145 -0.0285 293.459853751
0.0145 -0.0275 293.38653254
0.0145 -0.0265 293.516800921
0.0145 -0.0255 293.735374385
0.0145 -0.0245 294.347668878
0.0145 -0.0235 295.957157314
0.0145 -0.0225 297.56890905
0.0145 -0.0215 303.733083411
0.0145 -0.0205 310.084695227
0.0145 -0.0195 316.509259648
0.0145 -0.0185 322.970505602
0.0145 -0.0175 328.585242471
0.0145 -0.0165 329.651409304
0.0145 -0.0155 330.635416621
0.0145 -0.0145 330.689679087
0.0145 -0.0135 330.873769691
0.0145 -0.0125 331.08051897
0.0145 -0.0115 331.277041537
0.0145 -0.0105 331.88543761
0.0145 -0.0095 332.302456744
0.0145 -0.0085 332.719475877
0.0145 -0.0075 333.619150538
0.0145 -0.0065 334.215933375
0.0145 -0.0055 334.934317347
0.0145 -0.0045 335.763714202
0.0145 -0.0035 336.402265439
0.0145 -0.0025 337.190128924
0.0145 -0.0015 337.649687993
0.0145 -0.0005 338.033022785
0.0145 0.0005 338.443451122
0.0145 0.0015 338.354745763
0.0145 0.0025 338.266040404
0.0145 0.0035 338.000965466
0.0145 0.0045 337.430089634
0.0145 0.0055 336.859213802
0.0145 0.0065 336.003798879
0.0145 0.0075 335.102308005
0.0145 0.0085 334.200817131
0.0145 0.0095 332.974164689
0.0145 0.0105 331.881372532
0.0145 0.0115 330.788580375
0.0145 0.0125 329.695850088
0.0145 0.0135 328.728472802
0.0145 0.0145 327.761095516
0.0145 0.0155 326.975689016
0.0145 0.0165 326.344738771
0.0145 0.0175 325.716830447
0.0145 0.0185 325.562512197
0.0145 0.0195 325.504288157
0.0145 0.0205 325.584888903
0.0145 0.0215 326.188126464
0.0145 0.0225 327.143542452
0.0145 0.0235 330.489897108
0.0145 0.0245 333.766876855
0.0145 0.0255 338.082272191
0.0145 0.0265 342.916147051
0.0145 0.0275 346.624513608
0.0145 0.0285 348.402018381
0.0145 0.0295 350.179523154
0.0145 0.0305 351.434932483
0.0145 0.0315 352.617284706
0.0155 -0.0315 294.107479439
0.0155 -0.0305 293.810977901
0.0155 -0.0295 293.533184863
0.0155 -0.0285 293.467249423
0.0155 -0.0275 293.416642671
0.0155 -0.0265 293.572168362
0.0155 -0.0255 293.812422434
0.0155 -0.0245 294.474579249
0.0155 -0.0235 296.139862737
0.0155 -0.0225 297.832405279
0.0155 -0.0215 304.265216731
0.0155 -0.0205 310.764722631
0.0155 -0.0195 317.185543881
0.0155 -0.0185 323.627994473
0.0155 -0.0175 328.994489336
0.0155 -0.0165 329.847430026
0.0155 -0.0155 330.887899904
0.0155 -0.0145 331.03374501
0.0155 -0.0135 331.344120225
0.0155 -0.0125 331.622676597
0.0155 -0.0115 332.029034901
0.0155 -0.0105 332.863346374
0.0155 -0.0095 333.431838625
0.0155 -0.0085 334.275939644
0.0155 -0.0075 335.465270232
0.0155 -0.0065 336.13835399
0.0155 -0.0055 337.30730211
0.0155 -0.0045 338.60775543
0.0155 -0.0035 339.246306667
0.0155 -0.0025 340.35347375
0.0155 -0.0015 341.306219424
0.0155 -0.0005 341.689554216
0.0155 0.0005 342.254188514
0.0155 0.0015 342.519710576
0.0155 0.0025 342.40411955
0.0155 0.0035 342.082344494
0.0155 0.0045 341.607419997
0.0155 0.0055 340.901080733
0.0155 0.0065 339.745482145
0.0155 0.0075 338.777136236
0.0155 0.0085 337.609418029
0.0155 0.0095 335.933041635
0.0155 0.0105 334.745746785
0.0155 0.0115 333.364763782
0.0155 0.0125 331.635737983
0.0155 0.0135 330.668360697
0.0155 0.0145 329.410042834
0.0155 0.0155 328.006596071
0.0155 0.0165 327.375645826
0.0155 0.0175 326.437610133
0.0155 0.0185 325.647359884
0.0155 0.0195 325.146017612
0.0155 0.0205 325.268056592
0.0155 0.0215 325.751944106
0.0155 0.0225 325.990239285
0.0155 0.0235 327.365682732
0.0155 0.0245 329.657273981
0.0155 0.0255 333.927945194
0.0155 0.0265 338.650221201
0.0155 0.0275 343.353753019
0.0155 0.0285 348.082031698
0.0155 0.0295 350.688185194
0.0155 0.0305 351.926350841
0.0155 0.0315 352.785309907
0.0165 -0.0315 294.096647809
0.0165 -0.0305 293.800146272
0.0165 -0.0295 293.545002882
0.0165 -0.0285 293.504336021
0.0165 -0.0275 293.453729269
0.0165 -0.0265 293.612063503
0.0165 -0.0255 293.859317952
0.0165 -0.0245 294.641857303
0.0165 -0.0235 296.403358967
0.0165 -0.0225 298.095901508
0.0165 -0.0215 304.556945851
0.0165 -0.0205 311.23341136
0.0165 -0.0195 317.827440705
0.0165 -0.0185 324.26545463
0.0165 -0.0175 329.424758244
0.0165 -0.0165 330.277698933
0.0165 -0.0155 331.117175421
0.0165 -0.0145 331.506023562
0.0165 -0.0135 331.816361533