% Model:              SIMBench260525.mph
% Version:            COMSOL 6.2.0.339
% Date:               May 27 2026, 17:31
% Dimension:          2
% Nodes:              4096
% Expressions:        1
% Description:        温度
% Length unit:        m
% x                       y                        T (K)
% mirrored_by_python_y_to_minus_y, coord_match_decimals=12
0.0005 -0.0315 313.789698442
0.0005 -0.0305 312.321480592
0.0005 -0.0295 310.853262742
0.0005 -0.0285 309.522223699
0.0005 -0.0275 308.197004862
0.0005 -0.0265 306.919708741
0.0005 -0.0255 306.483120532
0.0005 -0.0245 305.847271819
0.0005 -0.0235 305.270401783
0.0005 -0.0225 304.724423599
0.0005 -0.0215 304.012775227
0.0005 -0.0205 303.297878118
0.0005 -0.0195 301.88571084
0.0005 -0.0185 300.248041741
0.0005 -0.0175 298.824825071
0.0005 -0.0165 297.492135165
0.0005 -0.0155 296.147575788
0.0005 -0.0145 294.949007207
0.0005 -0.0135 294.916144197
0.0005 -0.0125 294.883281187
0.0005 -0.0115 294.089016139
0.0005 -0.0105 293.651080785
0.0005 -0.0095 293.23717605
0.0005 -0.0085 293.130463533
0.0005 -0.0075 293.131561941
0.0005 -0.0065 293.276354438
0.0005 -0.0055 293.848473128
0.0005 -0.0045 294.457745976
0.0005 -0.0035 295.579991092
0.0005 -0.0025 295.583718235
0.0005 -0.0015 295.587445379
0.0005 -0.0005 296.971622415
0.0005 0.0005 298.849049876
0.0005 0.0015 300.726477337
0.0005 0.0025 302.491337056
0.0005 0.0035 304.461920997
0.0005 0.0045 306.432504938
0.0005 0.0055 307.421163583
0.0005 0.0065 308.010115674
0.0005 0.0075 308.599067766
0.0005 0.0085 308.929025747
0.0005 0.0095 309.208408194
0.0005 0.0105 309.487790641
0.0005 0.0115 309.601842007
0.0005 0.0125 309.958304439
0.0005 0.0135 310.314766872
0.0005 0.0145 310.50072646
0.0005 0.0155 311.127760961
0.0005 0.0165 311.754795461
0.0005 0.0175 312.092389132
0.0005 0.0185 312.838904533
0.0005 0.0195 313.585419934
0.0005 0.0205 314.181611114
0.0005 0.0215 315.486328497
0.0005 0.0225 316.791045881
0.0005 0.0235 318.110601567
0.0005 0.0245 320.712780225
0.0005 0.0255 323.314958884
0.0005 0.0265 326.483994112
0.0005 0.0275 329.516029269
0.0005 0.0285 332.548064427
0.0005 0.0295 335.364464619
0.0005 0.0305 336.879260545
0.0005 0.0315 338.379931418
0.0015 -0.0315 313.281616285
0.0015 -0.0305 311.853741143
0.0015 -0.0295 310.448380285
0.0015 -0.0285 309.140975294
0.0015 -0.0275 307.819767154
0.0015 -0.0265 307.078741495
0.0015 -0.0255 306.781181064
0.0015 -0.0245 306.259844887
0.0015 -0.0235 305.848255801
0.0015 -0.0225 305.543672271
0.0015 -0.0215 304.863817498
0.0015 -0.0205 304.14374618
0.0015 -0.0195 303.313547953
0.0015 -0.0185 301.716342943
0.0015 -0.0175 300.500699081
0.0015 -0.0165 299.246997628
0.0015 -0.0155 297.935407853
0.0015 -0.0145 296.716618923
0.0015 -0.0135 296.026062278
0.0015 -0.0125 295.520038946
0.0015 -0.0115 294.339013181
0.0015 -0.0105 293.643267136
0.0015 -0.0095 293.345524929
0.0015 -0.0085 293.111893443
0.0015 -0.0075 293.102532267
0.0015 -0.0065 293.425339741
0.0015 -0.0055 293.829798503
0.0015 -0.0045 294.741386468
0.0015 -0.0035 296.40280167
0.0015 -0.0025 297.196533849
0.0015 -0.0015 297.858997017
0.0015 -0.0005 299.553897172
0.0015 0.0005 301.349064957
0.0015 0.0015 303.139470012
0.0015 0.0025 304.809054533
0.0015 0.0035 306.643644114
0.0015 0.0045 308.123330241
0.0015 0.0055 308.924560727
0.0015 0.0065 309.60962005
0.0015 0.0075 310.061704435
0.0015 0.0085 310.326695988
0.0015 0.0095 310.599493994
0.0015 0.0105 310.758199902
0.0015 0.0115 310.753300454
0.0015 0.0125 310.941648092
0.0015 0.0135 311.150067994
0.0015 0.0145 311.159077871
0.0015 0.0155 311.499526857
0.0015 0.0165 311.918341773
0.0015 0.0175 312.049625741
0.0015 0.0185 312.512307868
0.0015 0.0195 313.097900945
0.0015 0.0205 313.447548522
0.0015 0.0215 314.300881406
0.0015 0.0225 315.495132653
0.0015 0.0235 316.504549645
0.0015 0.0245 318.259548465
0.0015 0.0255 321.19329946
0.0015 0.0265 324.554743086
0.0015 0.0275 327.766654147
0.0015 0.0285 330.931090178
0.0015 0.0295 334.21200957
0.0015 0.0305 336.173479565
0.0015 0.0315 337.285613358
0.0025 -0.0315 312.77217276
0.0025 -0.0305 311.3615717
0.0025 -0.0295 310.027149476
0.0025 -0.0285 308.742734161
0.0025 -0.0275 307.535334681
0.0025 -0.0265 307.247229131
0.0025 -0.0255 307.002117056
0.0025 -0.0245 306.764489033
0.0025 -0.0235 306.463826094
0.0025 -0.0225 306.156782586
0.0025 -0.0215 305.624036615
0.0025 -0.0205 304.905550205
0.0025 -0.0195 304.187063795
0.0025 -0.0185 303.165399127
0.0025 -0.0175 301.956032213
0.0025 -0.0165 300.746665298
0.0025 -0.0155 299.57725189
0.0025 -0.0145 298.358601216
0.0025 -0.0135 297.13113633
0.0025 -0.0125 295.870968327
0.0025 -0.0115 294.690439631
0.0025 -0.0105 293.665355421
0.0025 -0.0095 293.432353169
0.0025 -0.0085 293.199350917
0.0025 -0.0075 293.215527535
0.0025 -0.0065 293.545473315
0.0025 -0.0055 293.875419095
0.0025 -0.0045 295.208673613
0.0025 -0.0035 296.877778471
0.0025 -0.0025 298.546883329
0.0025 -0.0015 300.330024135
0.0025 -0.0005 302.022620426
0.0025 0.0005 303.706151177
0.0025 0.0015 305.349620522
0.0025 0.0025 307.017532563
0.0025 0.0035 308.679603056
0.0025 0.0045 309.539732045
0.0025 0.0055 310.340195206
0.0025 0.0065 311.152971778
0.0025 0.0075 311.495507963
0.0025 0.0085 311.761440659
0.0025 0.0095 312.031347827
0.0025 0.0105 312.064796816
0.0025 0.0115 312.063034146
0.0025 0.0125 312.047998367
0.0025 0.0135 312.020121542
0.0025 0.0145 312.026386281
0.0025 0.0155 312.015937753
0.0025 0.0165 312.0761997
0.0025 0.0175 312.201267615
0.0025 0.0185 312.322111342
0.0025 0.0195 312.601741177
0.0025 0.0205 312.943928912
0.0025 0.0215 313.286116646
0.0025 0.0225 314.228297628
0.0025 0.0235 315.279433784
0.0025 0.0245 316.31400409
0.0025 0.0255 319.053568783
0.0025 0.0265 322.388901368
0.0025 0.0275 325.743683721
0.0025 0.0285 329.009349686
0.0025 0.0295 332.203858423
0.0025 0.0305 334.534577106
0.0025 0.0315 336.191295298
0.0035 -0.0315 312.355255836
0.0035 -0.0305 310.891906354
0.0035 -0.0295 309.545390784
0.0035 -0.0285 308.444330172
0.0035 -0.0275 307.95104055
0.0035 -0.0265 307.929733457
0.0035 -0.0255 307.684621382
0.0035 -0.0245 307.466237138
0.0035 -0.0235 307.232557206
0.0035 -0.0225 306.923858675
0.0035 -0.0215 306.036196093
0.0035 -0.0205 305.256542378
0.0035 -0.0195 304.453026416
0.0035 -0.0185 303.405862575
0.0035 -0.0175 302.217310413
0.0035 -0.0165 301.123773833
0.0035 -0.0155 300.151858765
0.0035 -0.0145 298.933208091
0.0035 -0.0135 297.4292511
0.0035 -0.0125 295.874547951
0.0035 -0.0115 294.694019256
0.0035 -0.0105 293.880629059
0.0035 -0.0095 293.389078388
0.0035 -0.0085 293.178476959
0.0035 -0.0075 293.213749022
0.0035 -0.0065 293.473745564
0.0035 -0.0055 294.063926232
0.0035 -0.0045 295.17322728
0.0035 -0.0035 296.842332138
0.0035 -0.0025 298.970984732
0.0035 -0.0015 301.335856366
0.0035 -0.0005 303.028452657
0.0035 0.0005 304.527784638
0.0035 0.0015 305.987403478
0.0035 0.0025 307.655315518
0.0035 0.0035 309.208329455
0.0035 0.0045 310.507582122
0.0035 0.0055 311.308045284
0.0035 0.0065 312.324031719
0.0035 0.0075 313.220975323
0.0035 0.0085 313.486908019
0.0035 0.0095 313.816969643
0.0035 0.0105 314.085152654
0.0035 0.0115 314.083389984
0.0035 0.0125 313.879619792
0.0035 0.0135 313.649682351
0.0035 0.0145 313.655947091
0.0035 0.0155 313.341006699
0.0035 0.0165 313.009297373
0.0035 0.0175 313.134365287
0.0035 0.0185 313.006913033
0.0035 0.0195 312.897488711
0.0035 0.0205 313.239676446
0.0035 0.0215 313.416582195
0.0035 0.0225 313.69818453
0.0035 0.0235 314.749320686
0.0035 0.0245 315.589314848
0.0035 0.0255 316.437320988
0.0035 0.0265 319.772653573
0.0035 0.0275 323.188656096
0.0035 0.0285 326.625132118
0.0035 0.0295 329.854210686
0.0035 0.0305 331.874308731
0.0035 0.0315 334.126532209
0.0045 -0.0315 312.142748692
0.0045 -0.0305 310.553086041
0.0045 -0.0295 309.413281974
0.0045 -0.0285 308.87505605
0.0045 -0.0275 308.34841761
0.0045 -0.0265 308.34449393
0.0045 -0.0255 308.340570249
0.0045 -0.0245 308.167985244
0.0045 -0.0235 307.97136505
0.0045 -0.0225 307.37993623
0.0045 -0.0215 306.492273648
0.0045 -0.0205 305.607534551
0.0045 -0.0195 304.614416977
0.0045 -0.0185 303.567253136
0.0045 -0.0175 302.489202172
0.0045 -0.0165 301.535876484
0.0045 -0.0155 300.582550797
0.0045 -0.0145 299.405745425
0.0045 -0.0135 297.727365871
0.0045 -0.0125 296.048986317
0.0045 -0.0115 294.883386286
0.0045 -0.0105 294.13917344
0.0045 -0.0095 293.394960594
0.0045 -0.0085 293.284996129
0.0045 -0.0075 293.320268192
0.0045 -0.0065 293.402017812
0.0045 -0.0055 294.395567629
0.0045 -0.0045 295.489393451
0.0045 -0.0035 296.860351512
0.0045 -0.0025 299.414612979
0.0045 -0.0015 301.968874446
0.0045 -0.0005 303.9694371
0.0045 0.0005 305.3494181
0.0045 0.0015 306.729399099
0.0045 0.0025 308.248092714
0.0045 0.0035 309.737055855
0.0045 0.0045 311.226018995
0.0045 0.0055 312.361385648
0.0045 0.0065 313.49509166
0.0045 0.0075 314.628797672
0.0045 0.0085 315.238668413
0.0045 0.0095 315.60259146
0.0045 0.0105 315.966514507
0.0045 0.0115 316.019170613
0.0045 0.0125 315.711241217
0.0045 0.0135 315.40331182
0.0045 0.0145 315.151729443
0.0045 0.0155 314.666075646
0.0045 0.0165 314.180421849
0.0045 0.0175 313.967568241
0.0045 0.0185 313.691714724
0.0045 0.0195 313.415861206
0.0045 0.0205 313.479342752
0.0045 0.0215 313.535330583
0.0045 0.0225 313.591318415
0.0045 0.0235 314.15945827
0.0045 0.0245 314.864625606
0.0045 0.0255 315.569792942
0.0045 0.0265 317.244998735
0.0045 0.0275 320.700611833
0.0045 0.0285 324.156224932
0.0045 0.0295 327.531525589
0.0045 0.0305 330.059826371
0.0045 0.0315 332.588715745
0.0055 -0.0315 311.935244304
0.0055 -0.0305 310.689876268
0.0055 -0.0295 309.693465022
0.0055 -0.0285 309.249767105
0.0055 -0.0275 308.767556003
0.0055 -0.0265 308.821674335
0.0055 -0.0255 308.961985633
0.0055 -0.0245 308.880737894
0.0055 -0.0235 308.515652563
0.0055 -0.0225 307.36357189
0.0055 -0.0215 306.473366764
0.0055 -0.0205 305.328452814
0.0055 -0.0195 304.03407929
0.0055 -0.0185 302.995271931
0.0055 -0.0175 302.079314645
0.0055 -0.0165 301.168070811
0.0055 -0.0155 300.220234462
0.0055 -0.0145 299.413511988
0.0055 -0.0135 297.869317328
0.0055 -0.0125 296.19334724
0.0055 -0.0115 294.849961495
0.0055 -0.0105 294.1099267
0.0055 -0.0095 293.466287136
0.0055 -0.0085 293.280977883
0.0055 -0.0075 293.317663091
0.0055 -0.0065 293.524625133
0.0055 -0.0055 294.324032826
0.0055 -0.0045 295.422440663
0.0055 -0.0035 297.116296906
0.0055 -0.0025 299.55557266
0.0055 -0.0015 302.11153203
0.0055 -0.0005 303.784631284
0.0055 0.0005 305.174939543
0.0055 0.0015 306.564553911
0.0055 0.0025 308.026096651
0.0055 0.0035 309.513505653
0.0055 0.0045 311.000943581
0.0055 0.0055 313.085309214
0.0055 0.0065 314.216080562
0.0055 0.0075 315.346851911
0.0055 0.0085 316.7230056
0.0055 0.0095 317.089329975
0.0055 0.0105 317.450651329
0.0055 0.0115 317.852107112
0.0055 0.0125 317.562245134
0.0055 0.0135 317.254396173
0.0055 0.0145 316.822844228
0.0055 0.0155 316.335713013
0.0055 0.0165 315.846531843
0.0055 0.0175 315.005079819
0.0055 0.0185 314.701166618
0.0055 0.0195 314.414331336
0.0055 0.0205 313.824164387
0.0055 0.0215 313.882966418
0.0055 0.0225 313.941768448
0.0055 0.0235 313.87097181
0.0055 0.0245 314.59292839
0.0055 0.0255 315.366857274
0.0055 0.0265 316.249941938
0.0055 0.0275 318.942029815
0.0055 0.0285 322.41637622
0.0055 0.0295 326.002902559
0.0055 0.0305 328.52670905
0.0055 0.0315 331.050899282
0.0065 -0.0315 312.217153694
0.0065 -0.0305 311.002680571
0.0065 -0.0295 309.948751452
0.0065 -0.0285 309.516511487
0.0065 -0.0275 309.186960639
0.0065 -0.0265 309.379864783
0.0065 -0.0255 309.584708714
0.0065 -0.0245 309.594003142
0.0065 -0.0235 308.588182815
0.0065 -0.0225 307.396369828
0.0065 -0.0215 306.342549334
0.0065 -0.0205 304.868157751
0.0065 -0.0195 303.393766167
0.0065 -0.0185 302.31651525
0.0065 -0.0175 301.472113406
0.0065 -0.0165 300.623787923
0.0065 -0.0155 299.745940542
0.0065 -0.0145 298.971460415
0.0065 -0.0135 297.973393445
0.0065 -0.0125 296.468932832
0.0065 -0.0115 295.085827303
0.0065 -0.0105 294.002319541
0.0065 -0.0095 293.620271096
0.0065 -0.0085 293.337505602
0.0065 -0.0075 293.279580718
0.0065 -0.0065 293.713257077
0.0065 -0.0055 294.156753708
0.0065 -0.0045 295.357382922
0.0065 -0.0035 297.438303966
0.0065 -0.0025 299.576876964
0.0065 -0.0015 301.781378966
0.0065 -0.0005 303.179428493
0.0065 0.0005 304.575206314
0.0065 0.0015 305.999777459
0.0065 0.0025 307.475589236
0.0065 0.0035 308.955540497
0.0065 0.0045 310.762815292
0.0065 0.0055 312.944635449
0.0065 0.0065 314.745139586
0.0065 0.0075 316.012212384
0.0065 0.0085 317.422162061
0.0065 0.0095 318.458202303
0.0065 0.0105 318.842539577
0.0065 0.0115 319.24874214
0.0065 0.0125 319.420371756
0.0065 0.0135 319.040722422
0.0065 0.0145 318.594655882
0.0065 0.0155 318.135812022
0.0065 0.0165 317.444620784
0.0065 0.0175 316.552419756
0.0065 0.0185 315.862816408
0.0065 0.0195 315.410446043
0.0065 0.0205 314.7218953
0.0065 0.0215 314.350756503
0.0065 0.0225 314.336708339
0.0065 0.0235 314.232488474
0.0065 0.0245 314.405696572
0.0065 0.0255 315.22570353
0.0065 0.0265 316.122930772
0.0065 0.0275 317.184183087
0.0065 0.0285 320.797656758
0.0065 0.0295 324.411130429
0.0065 0.0305 326.998086019
0.0065 0.0315 329.609708925
0.0075 -0.0315 312.449034585
0.0075 -0.0305 311.25222683
0.0075 -0.0295 310.268501868
0.0075 -0.0285 309.947813619
0.0075 -0.0275 309.618262771
0.0075 -0.0265 309.765473369
0.0075 -0.0255 310.025882689
0.0075 -0.0245 309.743033768
0.0075 -0.0235 308.448118274
0.0075 -0.0225 307.222089577
0.0075 -0.0215 305.621925317
0.0075 -0.0205 304.135810892
0.0075 -0.0195 302.676025583
0.0075 -0.0185 301.708874979
0.0075 -0.0175 300.864484013
0.0075 -0.0165 300.020093047
0.0075 -0.0155 299.563204811
0.0075 -0.0145 298.783502961
0.0075 -0.0135 297.917180888
0.0075 -0.0125 296.571678297
0.0075 -0.0115 295.192727688
0.0075 -0.0105 294.037515045
0.0075 -0.0095 293.696309628
0.0075 -0.0085 293.416602568
0.0075 -0.0075 293.3515119
0.0075 -0.0065 293.798618652
0.0075 -0.0055 294.245725405
0.0075 -0.0045 295.461352214
0.0075 -0.0035 297.550023574
0.0075 -0.0025 299.638694934
0.0075 -0.0015 301.348982594
0.0075 -0.0005 302.7446859
0.0075 0.0005 304.140389206
0.0075 0.0015 305.36496304
0.0075 0.0025 306.842040433
0.0075 0.0035 308.337930392
0.0075 0.0045 310.419862713
0.0075 0.0055 312.597062708
0.0075 0.0065 314.822738448
0.0075 0.0075 316.576759313
0.0075 0.0085 317.982259316
0.0075 0.0095 319.362686181
0.0075 0.0105 319.98849884
0.0075 0.0115 320.386248236
0.0075 0.0125 320.7654548
0.0075 0.0135 320.545269374
0.0075 0.0145 320.095121533
0.0075 0.0155 319.628561556
0.0075 0.0165 318.85773494
0.0075 0.0175 317.98132497
0.0075 0.0185 317.098054289
0.0075 0.0195 316.311852346
0.0075 0.0205 315.624174162
0.0075 0.0215 314.927382037
0.0075 0.0225 314.696395533
0.0075 0.0235 314.59236859
0.0075 0.0245 314.488341647
0.0075 0.0255 314.975468278
0.0075 0.0265 315.778636228
0.0075 0.0275 316.841449505
0.0075 0.0285 319.90099528
0.0075 0.0295 322.960541055
0.0075 0.0305 325.639236751
0.0075 0.0315 328.338693477
0.0085 -0.0315 312.698566382
0.0085 -0.0305 311.615820584
0.0085 -0.0295 310.651971734
0.0085 -0.0285 310.350193813
0.0085 -0.0275 310.048415891
0.0085 -0.0265 310.061712368
0.0085 -0.0255 310.139802502
0.0085 -0.0245 309.782720438
0.0085 -0.0235 308.146266287
0.0085 -0.0225 306.832811117
0.0085 -0.0215 304.934029359
0.0085 -0.0205 303.179962832
0.0085 -0.0195 301.965871897
0.0085 -0.0185 301.106555577
0.0085 -0.0175 300.256402687
0.0085 -0.0165 299.784926784
0.0085 -0.0155 299.579415719
0.0085 -0.0145 298.900405612
0.0085 -0.0135 297.738704411
0.0085 -0.0125 296.449830095
0.0085 -0.0115 295.070879486
0.0085 -0.0105 294.277797587
0.0085 -0.0095 293.654336973
0.0085 -0.0085 293.406923171
0.0085 -0.0075 293.451678639
0.0085 -0.0065 293.696493638
0.0085 -0.0055 294.332145863
0.0085 -0.0045 295.435423834
0.0085 -0.0035 297.212682391
0.0085 -0.0025 299.259573907
0.0085 -0.0015 301.240795956
0.0085 -0.0005 302.714270797
0.0085 0.0005 303.78149036
0.0085 0.0015 304.540469586
0.0085 0.0025 305.999003636
0.0085 0.0035 307.700741893
0.0085 0.0045 309.569768794
0.0085 0.0055 311.746968789
0.0085 0.0065 314.278466216
0.0085 0.0075 316.8385932
0.0085 0.0085 318.244093203
0.0085 0.0095 319.505811489
0.0085 0.0105 320.646788983
0.0085 0.0115 321.044538379
0.0085 0.0125 321.343950572
0.0085 0.0135 321.591839907
0.0085 0.0145 321.141692066
0.0085 0.0155 320.596874476
0.0085 0.0165 320.015275187
0.0085 0.0175 319.138865217
0.0085 0.0185 318.134806231
0.0085 0.0195 317.161727511
0.0085 0.0205 316.474049327
0.0085 0.0215 315.708439618
0.0085 0.0225 315.048785891
0.0085 0.0235 314.944758948
0.0085 0.0245 314.749355208
0.0085 0.0255 314.963995802
0.0085 0.0265 315.360454184
0.0085 0.0275 316.572776682
0.0085 0.0285 319.512262551
0.0085 0.0295 322.351616204
0.0085 0.0305 324.758713034
0.0085 0.0315 327.098399674
0.0095 -0.0315 313.065729705
0.0095 -0.0305 312.020973794
0.0095 -0.0295 311.0354416
0.0095 -0.0285 310.74157837
0.0095 -0.0275 310.519053773
0.0095 -0.0265 310.313066969
0.0095 -0.0255 310.223160929
0.0095 -0.0245 309.822407107
0.0095 -0.0235 308.167014518
0.0095 -0.0225 305.96318872
0.0095 -0.0215 304.099441701
0.0095 -0.0205 302.264264861
0.0095 -0.0195 301.382589919
0.0095 -0.0185 300.520915259
0.0095 -0.0175 299.778294544
0.0095 -0.0165 299.571190906
0.0095 -0.0155 299.364087269
0.0095 -0.0145 298.869995977
0.0095 -0.0135 297.581880062
0.0095 -0.0125 296.293764148
0.0095 -0.0115 295.253354933
0.0095 -0.0105 294.50949925
0.0095 -0.0095 293.764041583
0.0095 -0.0085 293.547919158
0.0095 -0.0075 293.592674627
0.0095 -0.0065 293.637430096
0.0095 -0.0055 294.608443518
0.0095 -0.0045 295.711721489
0.0095 -0.0035 296.875341209
0.0095 -0.0025 298.863834003
0.0095 -0.0015 300.845056052
0.0095 -0.0005 302.644155033
0.0095 0.0005 303.403134259
0.0095 0.0015 304.162113485
0.0095 0.0025 305.223309789
0.0095 0.0035 307.063553394
0.0095 0.0045 308.903797
0.0095 0.0055 311.049545465
0.0095 0.0065 313.734193984
0.0095 0.0075 316.418842503
0.0095 0.0085 318.437328771
0.0095 0.0095 319.648936796
0.0095 0.0105 320.860544821
0.0095 0.0115 321.650686041
0.0095 0.0125 321.922446345
0.0095 0.0135 322.184875023
0.0095 0.0145 322.118311261
0.0095 0.0155 321.553578553
0.0095 0.0165 320.988845844
0.0095 0.0175 320.223516159
0.0095 0.0185 319.171558172
0.0095 0.0195 318.119600185
0.0095 0.0205 317.31186831
0.0095 0.0215 316.489497199
0.0095 0.0225 315.660910264
0.0095 0.0235 315.213759328
0.0095 0.0245 315.00280566
0.0095 0.0255 315.171957997
0.0095 0.0265 315.549867242
0.0095 0.0275 316.34215934
0.0095 0.0285 318.897568355
0.0095 0.0295 321.736922007
0.0095 0.0305 324.144016533
0.0095 0.0315 326.549759356
0.0105 -0.0315 313.391721538
0.0105 -0.0305 312.355336273
0.0105 -0.0295 311.44940843
0.0105 -0.0285 311.252007396
0.0105 -0.0275 311.029482799
0.0105 -0.0265 310.823330606
0.0105 -0.0255 310.623975006
0.0105 -0.0245 309.390241145
0.0105 -0.0235 307.117324647
0.0105 -0.0225 304.867640369
0.0105 -0.0215 302.964868922
0.0105 -0.0205 301.797577981
0.0105 -0.0195 300.868753583
0.0105 -0.0185 300.007078922
0.0105 -0.0175 299.677001992
0.0105 -0.0165 299.483364403
0.0105 -0.0155 299.276260765
0.0105 -0.0145 298.679450722
0.0105 -0.0135 297.652229505
0.0105 -0.0125 296.37709819
0.0105 -0.0115 295.216401779
0.0105 -0.0105 294.408333839
0.0105 -0.0095 293.774534581
0.0105 -0.0085 293.506108391
0.0105 -0.0075 293.551529752
0.0105 -0.0065 293.738958849
0.0105 -0.0055 294.361335878
0.0105 -0.0045 295.481052357
0.0105 -0.0035 296.918854811
0.0105 -0.0025 298.738392782
0.0105 -0.0015 300.714830579
0.0105 -0.0005 302.139305005
0.0105 0.0005 303.02943553
0.0105 0.0015 303.788485556
0.0105 0.0025 304.645844483
0.0105 0.0035 306.204910958
0.0105 0.0045 308.045768496
0.0105 0.0055 310.124940713
0.0105 0.0065 312.707657058
0.0105 0.0075 315.386383453
0.0105 0.0085 318.045948423
0.0105 0.0095 319.469724746
0.0105 0.0105 320.666746029
0.0105 0.0115 321.647059315
0.0105 0.0125 322.027085372
0.0105 0.0135 322.268269458
0.0105 0.0145 322.312055097
0.0105 0.0155 321.870214256
0.0105 0.0165 321.291541656
0.0105 0.0175 320.628258912
0.0105 0.0185 319.713290606
0.0105 0.0195 318.7983223
0.0105 0.0205 317.901362288
0.0105 0.0215 317.012381385
0.0105 0.0225 316.102432752
0.0105 0.0235 315.676141635
0.0105 0.0245 315.353425068
0.0105 0.0255 315.292215666
0.0105 0.0265 315.589114522
0.0105 0.0275 316.377234801
0.0105 0.0285 318.852111653
0.0105 0.0295 321.320290279
0.0105 0.0305 323.647167398
0.0105 0.0315 326.082318356
0.0115 -0.0315 313.736350627
0.0115 -0.0305 312.765691113
0.0115 -0.0295 311.877500382
0.0115 -0.0285 311.705874978
0.0115 -0.0275 311.534249574
0.0115 -0.0265 310.931428844
0.0115 -0.0255 309.924163713
0.0115 -0.0245 308.533584869
0.0115 -0.0235 306.175731803
0.0115 -0.0225 303.817950499
0.0115 -0.0215 302.275463795
0.0115 -0.0205 301.3308911
0.0115 -0.0195 300.386318406
0.0115 -0.0185 299.758861121
0.0115 -0.0175 299.575316017
0.0115 -0.0165 299.391770912
0.0115 -0.0155 298.976986754
0.0115 -0.0145 298.345880834
0.0115 -0.0135 297.714774915
0.0115 -0.0125 296.521929723
0.0115 -0.0115 295.361233313
0.0115 -0.0105 294.307168429
0.0115 -0.0095 293.92861218
0.0115 -0.0085 293.615613967
0.0115 -0.0075 293.506578282
0.0115 -0.0065 293.889189978
0.0115 -0.0055 294.331872516
0.0115 -0.0045 295.364815417
0.0115 -0.0035 297.005873276
0.0115 -0.0025 298.651877849
0.0115 -0.0015 300.507544109
0.0115 -0.0005 301.560314627
0.0115 0.0005 302.613085144
0.0115 0.0015 303.450160362
0.0115 0.0025 304.345407139
0.0115 0.0035 305.316144918
0.0115 0.0045 307.281695091
0.0115 0.0055 309.392488898
0.0115 0.0065 311.622335908
0.0115 0.0075 314.289715292
0.0115 0.0085 316.948521705
0.0115 0.0095 319.268856047
0.0115 0.0105 320.326763264
0.0115 0.0115 321.30707655
0.0115 0.0125 322.131074477
0.0115 0.0135 322.226756633
0.0115 0.0145 322.270542272
0.0115 0.0155 322.185109257
0.0115 0.0165 321.557451566
0.0115 0.0175 320.929793875
0.0115 0.0185 320.03021977
0.0115 0.0195 319.030910294
0.0115 0.0205 318.159003265
0.0115 0.0215 317.382030425
0.0115 0.0225 316.54395524
0.0115 0.0235 316.117108504
0.0115 0.0245 315.631978661
0.0115 0.0255 315.524544983
0.0115 0.0265 315.683535406
0.0115 0.0275 316.412310261
0.0115 0.0285 318.864214052
0.0115 0.0295 321.312300239
0.0115 0.0305 323.517405355
0.0115 0.0315 325.685739768
0.0125 -0.0315 314.075894397
0.0125 -0.0305 313.196004169
0.0125 -0.0295 312.305592334
0.0125 -0.0285 312.110453529
0.0125 -0.0275 311.794519383
0.0125 -0.0265 310.536628939
0.0125 -0.0255 309.053202918
0.0125 -0.0245 307.676928593
0.0125 -0.0235 305.327444517
0.0125 -0.0225 303.0459886
0.0125 -0.0215 301.766485624
0.0125 -0.0205 300.82633706
0.0125 -0.0195 299.882565677
0.0125 -0.0185 299.634282019
0.0125 -0.0175 299.451731724
0.0125 -0.0165 299.269431522
0.0125 -0.0155 299.007334545
0.0125 -0.0145 298.383529929
0.0125 -0.0135 297.637281414
0.0125 -0.0125 296.516302724
0.0125 -0.0115 295.362623222
0.0125 -0.0105 294.402273479
0.0125 -0.0095 293.986532012
0.0125 -0.0085 293.695307292
0.0125 -0.0075 293.534843661
0.0125 -0.0065 293.930032412
0.0125 -0.0055 294.337657358
0.0125 -0.0045 295.243335882
0.0125 -0.0035 296.949546241
0.0125 -0.0025 298.6557566
0.0125 -0.0015 300.059972781
0.0125 -0.0005 301.180387753
0.0125 0.0005 302.300802725
0.0125 0.0015 303.079818453
0.0125 0.0025 303.976544697
0.0125 0.0035 304.875552678
0.0125 0.0045 306.418382513
0.0125 0.0055 308.529773793
0.0125 0.0065 310.636578415
0.0125 0.0075 313.060363624
0.0125 0.0085 315.714385013
0.0125 0.0095 318.273521074
0.0125 0.0105 319.741343975
0.0125 0.0115 320.705032332
0.0125 0.0125 321.61784563
0.0125 0.0135 321.959238486
0.0125 0.0145 321.978600827
0.0125 0.0155 321.888564044
0.0125 0.0165 321.460963721
0.0125 0.0175 320.855872046
0.0125 0.0185 320.229064814
0.0125 0.0195 319.260429031
0.0125 0.0205 318.416644243
0.0125 0.0215 317.631512551
0.0125 0.0225 316.799166003
0.0125 0.0235 316.365589717
0.0125 0.0245 315.887929447
0.0125 0.0255 315.792176493
0.0125 0.0265 315.94409213
0.0125 0.0275 316.57589546
0.0125 0.0285 318.869137726
0.0125 0.0295 321.3043102
0.0125 0.0305 323.508634004
0.0125 0.0315 325.648832689
0.0135 -0.0315 314.345933435
0.0135 -0.0305 313.470572289
0.0135 -0.0295 312.689404379
0.0135 -0.0285 312.299103921
0.0135 -0.0275 311.983169775
0.0135 -0.0265 310.723675724
0.0135 -0.0255 309.061561931
0.0135 -0.0245 306.855749255
0.0135 -0.0235 304.612721656
0.0135 -0.0225 302.33126574
0.0135 -0.0215 301.19680091
0.0135 -0.0205 300.312309985
0.0135 -0.0195 299.788866408
0.0135 -0.0185 299.533004591
0.0135 -0.0175 299.320973774
0.0135 -0.0165 299.141427455
0.0135 -0.0155 298.963995764
0.0135 -0.0145 298.557314725
0.0135 -0.0135 297.541439107
0.0135 -0.0125 296.441041117
0.0135 -0.0115 295.316941712
0.0135 -0.0105 294.598709241
0.0135 -0.0095 293.958829632
0.0135 -0.0085 293.704636787
0.0135 -0.0075 293.54999747
0.0135 -0.0065 293.886871528
0.0135 -0.0055 294.410364352
0.0135 -0.0045 295.16207295
0.0135 -0.0035 296.716287739
0.0135 -0.0025 298.510134428
0.0135 -0.0015 299.976583212
0.0135 -0.0005 301.182993048
0.0135 0.0005 302.205061214
0.0135 0.0015 302.778116047
0.0135 0.0025 303.538982557
0.0135 0.0035 304.51287816
0.0135 0.0045 305.551507772
0.0135 0.0055 307.526914517
0.0135 0.0065 309.61779862
0.0135 0.0075 311.702472624
0.0135 0.0085 314.35054178
0.0135 0.0095 316.694364635
0.0135 0.0105 318.96960838
0.0135 0.0115 319.932610416
0.0135 0.0125 320.767004267
0.0135 0.0135 321.601398117
0.0135 0.0145 321.588470737
0.0135 0.0155 321.43526782
0.0135 0.0165 321.27691695
0.0135 0.0175 320.659684528
0.0135 0.0185 320.032877296
0.0135 0.0195 319.403563353
0.0135 0.0205 318.623011623
0.0135 0.0215 317.788518729
0.0135 0.0225 316.966501887
0.0135 0.0235 316.532925601
0.0135 0.0245 316.100790517
0.0135 0.0255 316.043489864
0.0135 0.0265 316.187184252
0.0135 0.0275 316.829801264
0.0135 0.0285 319.12304353
0.0135 0.0295 321.420556404
0.0135 0.0305 323.452546742
0.0135 0.0315 325.589060837
0.0145 -0.0315 314.646531342
0.0145 -0.0305 313.842850136
0.0145 -0.0295 313.076293509
0.0145 -0.0285 312.638456823
0.0145 -0.0275 312.200620136
0.0145 -0.0265 310.50432618
0.0145 -0.0255 308.204192132
0.0145 -0.0245 305.947803193
0.0145 -0.0235 303.795568456
0.0145 -0.0225 301.61654288
0.0145 -0.0215 300.714672547
0.0145 -0.0205 300.003036245
0.0145 -0.0195 299.639479314
0.0145 -0.0185 299.411274515
0.0145 -0.0175 299.200229658
0.0145 -0.0165 299.050990445
0.0145 -0.0155 298.901751233
0.0145 -0.0145 298.559959571
0.0145 -0.0135 297.501687503
0.0145 -0.0125 296.397907896
0.0145 -0.0115 295.426115059
0.0145 -0.0105 294.711334089
0.0145 -0.0095 293.998179043
0.0145 -0.0085 293.761747233
0.0145 -0.0075 293.613890095
0.0145 -0.0065 293.880316599
0.0145 -0.0055 294.387822953
0.0145 -0.0045 295.186783156
0.0145 -0.0035 296.569003528
0.0145 -0.0025 298.387575073
0.0145 -0.0015 299.825091889
0.0145 -0.0005 301.105266325
0.0145 0.0005 301.983397207
0.0145 0.0015 302.556840332
0.0145 0.0025 303.11846252
0.0145 0.0035 304.139270489
0.0145 0.0045 305.178852572
0.0145 0.0055 306.501575875
0.0145 0.0065 308.585492346
0.0145 0.0075 310.669408817
0.0145 0.0085 312.795209142
0.0145 0.0095 315.090536351
0.0145 0.0105 317.385863561
0.0145 0.0115 318.992770651
0.0145 0.0125 319.800477613
0.0145 0.0135 320.608184574
0.0145 0.0145 321.077325598
0.0145 0.0155 320.908883716
0.0145 0.0165 320.731621599
0.0145 0.0175 320.345795996
0.0145 0.0185 319.697302066
0.0145 0.0195 319.165522671
0.0145 0.0205 318.566482889
0.0145 0.0215 317.882938092
0.0145 0.0225 317.133837771
0.0145 0.0235 316.714689797
0.0145 0.0245 316.302554739
0.0145 0.0255 316.250441989
0.0145 0.0265 316.416824078
0.0145 0.0275 317.084420914
0.0145 0.0285 319.386476727
0.0145 0.0295 321.688532541
0.0145 0.0305 323.673916375
0.0145 0.0315 325.613067301
0.0155 -0.0315 314.967633308
0.0155 -0.0305 314.224155679
0.0155 -0.0295 313.463182639
0.0155 -0.0285 312.938641693
0.0155 -0.0275 312.204082323
0.0155 -0.0265 310.018639946
0.0155 -0.0255 307.293115429
0.0155 -0.0245 305.039857131
0.0155 -0.0235 303.028364283
0.0155 -0.0225 301.19550438
0.0155 -0.0215 300.517387234
0.0155 -0.0205 299.844828947
0.0155 -0.0195 299.437798507
0.0155 -0.0185 299.26289764
0.0155 -0.0175 299.134209969
0.0155 -0.0165 299.115191996
0.0155 -0.0155 298.976799097
0.0155 -0.0145 298.389562643
0.0155 -0.0135 297.540954196
0.0155 -0.0125 296.456719125
0.0155 -0.0115 295.495092014
0.0155 -0.0105 294.67155722
0.0155 -0.0095 294.119678272
0.0155 -0.0085 293.73997562
0.0155 -0.0075 293.699551796
0.0155 -0.0065 293.902717852
0.0155 -0.0055 294.313848396
0.0155 -0.0045 295.24126097
0.0155 -0.0035 296.335165461
0.0155 -0.0025 298.169712741
0.0155 -0.0015 299.792789322
0.0155 -0.0005 301.078557849
0.0155 0.0005 301.925894481
0.0155 0.0015 302.507521135
0.0155 0.0025 302.982494895
0.0155 0.0035 303.648617143
0.0155 0.0045 304.688199226
0.0155 0.0055 305.648126013
0.0155 0.0065 307.394942247
0.0155 0.0075 309.446036739
0.0155 0.0085 311.131944746
0.0155 0.0095 313.314315701
0.0155 0.0105 315.534129319
0.0155 0.0115 317.487628545
0.0155 0.0125 318.496647918
0.0155 0.0135 319.322840396
0.0155 0.0145 320.181529006
0.0155 0.0155 320.311261863
0.0155 0.0165 320.086271079
0.0155 0.0175 319.814790618
0.0155 0.0185 319.405589542
0.0155 0.0195 318.957456787
0.0155 0.0205 318.399116496
0.0155 0.0215 317.746679076
0.0155 0.0225 317.229470739
0.0155 0.0235 316.893708442
0.0155 0.0245 316.504318962
0.0155 0.0255 316.454354531
0.0155 0.0265 316.681763955
0.0155 0.0275 317.417976666
0.0155 0.0285 319.668678362
0.0155 0.0295 321.956508677
0.0155 0.0305 323.937585653
0.0155 0.0315 325.787371869
0.0165 -0.0315 315.254099052
0.0165 -0.0305 314.510621423
0.0165 -0.0295 313.750014527
0.0165 -0.0285 312.835152818
0.0165 -0.0275 312.100593447
0.0165 -0.0265 309.904394462
0.0165 -0.0255 307.069484611
0.0165 -0.0245 304.455187946
0.0165 -0.0235 302.702503393
0.0165 -0.0225 300.869643491
0.0165 -0.0215 300.192285195
0.0165 -0.0205 299.606605573
0.0165 -0.0195 299.328344419
0.0165 -0.0185 299.188360154
0.0165 -0.0175 299.058797623
0.0165 -0.0165 299.039779651
0.0165 -0.0155 299.007347246
0.0165 -0.0145 298.249476602
0.0165 -0.0135 297.469820736