% Model:              SIMBench260525.mph
% Version:            COMSOL 6.2.0.339
% Date:               May 27 2026, 17:17
% Dimension:          2
% Nodes:              4096
% Expressions:        1
% Description:        温度
% Length unit:        m
% x                       y                        T (K)
5.0E-4                    -0.0315                  360.9548455004744
5.0E-4                    -0.0305                  359.3884196817388
5.0E-4                    -0.0295                  357.8215367294404
5.0E-4                    -0.0285                  355.4582128431179
5.0E-4                    -0.0275                  353.3242972477278
5.0E-4                    -0.0265                  351.32577193995377
5.0E-4                    -0.0255                  350.1844919329495
5.0E-4                    -0.0245                  349.06945059793355
5.0E-4                    -0.0235                  348.1227987230459
5.0E-4                    -0.0225                  347.4794028900754
5.0E-4                    -0.0215                  346.7924275199504
5.0E-4                    -0.0205                  346.1525222668108
5.0E-4                    -0.0195                  345.6320959108599
5.0E-4                    -0.0185                  345.12391817827705
5.0E-4                    -0.0175                  344.48524013716553
5.0E-4                    -0.0165                  344.1147202408173
5.0E-4                    -0.0155                  343.7488967151269
5.0E-4                    -0.0145                  343.0302123979518
5.0E-4                    -0.0135                  342.6813642185338
5.0E-4                    -0.0125                  342.3325160391158
5.0E-4                    -0.0115                  341.7808954154896
5.0E-4                    -0.0105                  341.3821322206484
5.0E-4                    -0.0095                  340.99049727722286
5.0E-4                    -0.0085                  340.74626925776124
5.0E-4                    -0.0075                  340.5656061547251
5.0E-4                    -0.0065                  340.41062905744485
5.0E-4                    -0.0055                  340.3431376048745
5.0E-4                    -0.0045                  340.2754782490189
5.0E-4                    -0.0035                  340.2684608228529
5.0E-4                    -0.0025                  340.28458127213094
5.0E-4                    -0.0015                  340.2793621659736
5.0E-4                    -5.0E-4                  340.37538848762165
5.0E-4                    5.0E-4                   340.3715889004435
5.0E-4                    0.0015                   340.35502280152537
5.0E-4                    0.0025                   340.4878265774266
5.0E-4                    0.0035                   340.4051486375435
5.0E-4                    0.0045                   340.3224706976605
5.0E-4                    0.0055                   340.3573666934921
5.0E-4                    0.0065                   339.97685433285403
5.0E-4                    0.0075                   339.60166915053253
5.0E-4                    0.0085                   339.1301551003002
5.0E-4                    0.0095                   337.85737911583414
5.0E-4                    0.0105                   336.7468641553773
5.0E-4                    0.0115                   334.3915047781297
5.0E-4                    0.0125                   330.48082184399
5.0E-4                    0.0135                   327.2636138401961
5.0E-4                    0.0145                   320.1830541492667
5.0E-4                    0.0155                   311.10017711935893
5.0E-4                    0.0165                   302.17274764821525
5.0E-4                    0.0175                   299.7347038871736
5.0E-4                    0.0185                   298.03644040062017
5.0E-4                    0.0195                   295.0133692800916
5.0E-4                    0.0205                   294.88605662774984
5.0E-4                    0.0215                   294.7587439754081
5.0E-4                    0.0225                   293.7269681094454
5.0E-4                    0.0235                   293.32762348337377
5.0E-4                    0.0245                   293.14452746125255
5.0E-4                    0.0255                   293.16168400809534
5.0E-4                    0.0265                   293.1944592409366
5.0E-4                    0.0275                   293.1795625931501
5.0E-4                    0.0285                   293.1646659453635
5.0E-4                    0.0295                   293.195904558764
5.0E-4                    0.0305                   293.1700312366934
5.0E-4                    0.0315                   293.14415791462284
0.0015                    -0.0315                  360.4563679668918
0.0015                    -0.0305                  358.92025686641966
0.0015                    -0.0295                  356.96273977691436
0.0015                    -0.0285                  354.33638827796534
0.0015                    -0.0275                  352.010719548064
0.0015                    -0.0265                  350.63831900031545
0.0015                    -0.0255                  349.4689090493652
0.0015                    -0.0245                  348.34955085703126
0.0015                    -0.0235                  347.769384328842
0.0015                    -0.0225                  347.2059709313649
0.0015                    -0.0215                  346.5266969055942
0.0015                    -0.0205                  345.94541616569563
0.0015                    -0.0195                  345.3812549295045
0.0015                    -0.0185                  344.82439303427907
0.0015                    -0.0175                  344.09909801849875
0.0015                    -0.0165                  343.51107030762495
0.0015                    -0.0155                  342.92269139742115
0.0015                    -0.0145                  341.9773232544611
0.0015                    -0.0135                  341.3568042346548
0.0015                    -0.0125                  340.84333919479656
0.0015                    -0.0115                  340.1870179595152
0.0015                    -0.0105                  339.7124507880757
0.0015                    -0.0095                  339.3823409009471
0.0015                    -0.0085                  339.083366874533
0.0015                    -0.0075                  338.8863619619355
0.0015                    -0.0065                  338.8006694123421
0.0015                    -0.0055                  338.73344392709066
0.0015                    -0.0045                  338.665784571235
0.0015                    -0.0035                  338.75500670218673
0.0015                    -0.0025                  338.82899157780287
0.0015                    -0.0015                  338.850745876322
0.0015                    -5.0E-4                  339.0333301521665
0.0015                    5.0E-4                   339.14939797651425
0.0015                    0.0015                   339.21019320260575
0.0015                    0.0025                   339.45178193924227
0.0015                    0.0035                   339.53389102190965
0.0015                    0.0045                   339.59714089534896
0.0015                    0.0055                   339.8341916205371
0.0015                    0.0065                   339.6699300010628
0.0015                    0.0075                   339.57453539460533
0.0015                    0.0085                   339.65889468536625
0.0015                    0.0095                   338.64705933219034
0.0015                    0.0105                   338.11320229918
0.0015                    0.0115                   337.7985426565404
0.0015                    0.0125                   334.01148518276074
0.0015                    0.0135                   332.06969518505366
0.0015                    0.0145                   329.37752276856827
0.0015                    0.0155                   320.3225250798491
0.0015                    0.0165                   311.5600635640556
0.0015                    0.0175                   305.03985998010694
0.0015                    0.0185                   302.45166125852256
0.0015                    0.0195                   298.11828961212024
0.0015                    0.0205                   296.46673635564065
0.0015                    0.0215                   295.467788103307
0.0015                    0.0225                   294.22536467075696
0.0015                    0.0235                   293.37140875775276
0.0015                    0.0245                   293.16878254248826
0.0015                    0.0255                   293.1676630043664
0.0015                    0.0265                   293.23392270952843
0.0015                    0.0275                   293.2671082410123
0.0015                    0.0285                   293.2681085974823
0.0015                    0.0295                   293.34976674210174
0.0015                    0.0305                   293.3608240812139
0.0015                    0.0315                   293.42990165459
0.0025                    -0.0315                  359.95789043330916
0.0025                    -0.0305                  358.2692767101145
0.0025                    -0.0295                  356.15506558152407
0.0025                    -0.0285                  353.50177719466785
0.0025                    -0.0275                  351.3424031920085
0.0025                    -0.0265                  350.12306864274615
0.0025                    -0.0255                  348.919473282303
0.0025                    -0.0245                  348.1871595999932
0.0025                    -0.0235                  347.61437085980185
0.0025                    -0.0225                  347.0415821196105
0.0025                    -0.0215                  346.4778253715167
0.0025                    -0.0205                  345.9013470550591
0.0025                    -0.0195                  345.32486873860154
0.0025                    -0.0185                  344.38346397079545
0.0025                    -0.0175                  343.6565094795501
0.0025                    -0.0165                  342.9214886964533
0.0025                    -0.0155                  341.81081761332314
0.0025                    -0.0145                  340.8694533705164
0.0025                    -0.0135                  339.94918063051716
0.0025                    -0.0125                  339.28523923093667
0.0025                    -0.0115                  338.6298798123272
0.0025                    -0.0105                  338.0925854904285
0.0025                    -0.0095                  337.79323244430344
0.0025                    -0.0085                  337.4938793981784
0.0025                    -0.0075                  337.3061342778202
0.0025                    -0.0065                  337.23816227239047
0.0025                    -0.0055                  337.17019026696073
0.0025                    -0.0045                  337.19265093118497
0.0025                    -0.0035                  337.28323764900034
0.0025                    -0.0025                  337.37382436681565
0.0025                    -0.0015                  337.51944449672015
0.0025                    -5.0E-4                  337.70197686932755
0.0025                    5.0E-4                   337.884509241935
0.0025                    0.0015                   338.1032667761964
0.0025                    0.0025                   338.34499670824977
0.0025                    0.0035                   338.58468710066614
0.0025                    0.0045                   338.81877902642157
0.0025                    0.0055                   339.0561908521946
0.0025                    0.0065                   339.29837630470143
0.0025                    0.0075                   339.38273559546235
0.0025                    0.0085                   339.4670948862233
0.0025                    0.0095                   339.5187941337719
0.0025                    0.0105                   339.2041344911323
0.0025                    0.0115                   338.88947484849274
0.0025                    0.0125                   338.14232792464367
0.0025                    0.0135                   336.3507502279932
0.0025                    0.0145                   334.5591725313428
0.0025                    0.0155                   329.314763307454
0.0025                    0.0165                   320.48530770559677
0.0025                    0.0175                   311.6558521037396
0.0025                    0.0185                   306.8082268689318
0.0025                    0.0195                   302.4473761997142
0.0025                    0.0205                   297.69656694353534
0.0025                    0.0215                   296.0156174024046
0.0025                    0.0225                   294.72376123206845
0.0025                    0.0235                   293.71897540132943
0.0025                    0.0245                   293.2111638001558
0.0025                    0.0255                   293.1736420006374
0.0025                    0.0265                   293.25333708588136
0.0025                    0.0275                   293.3466698940818
0.0025                    0.0285                   293.3984371789843
0.0025                    0.0295                   293.5096259626978
0.0025                    0.0305                   293.62246941647095
0.0025                    0.0315                   293.71983383021075
0.0035                    -0.0315                  359.2944151550198
0.0035                    -0.0305                  357.3667149902095
0.0035                    -0.0295                  355.47510585662496
0.0035                    -0.0285                  353.0613031800028
0.0035                    -0.0275                  351.4384997904125
0.0035                    -0.0265                  349.9801867602597
0.0035                    -0.0255                  348.98465651255435
0.0035                    -0.0245                  348.78270456089916
0.0035                    -0.0235                  348.3131584562467
0.0035                    -0.0225                  347.7574675018819
0.0035                    -0.0215                  347.2401704225328
0.0035                    -0.0205                  346.6708435553448
0.0035                    -0.0195                  345.510672855563
0.0035                    -0.0185                  343.68798087778845
0.0035                    -0.0175                  342.9610263865432
0.0035                    -0.0165                  341.61667049737014
0.0035                    -0.0155                  340.04971266876123
0.0035                    -0.0145                  339.10834842595455
0.0035                    -0.0135                  338.27246534352355
0.0035                    -0.0125                  337.5179504643306
0.0035                    -0.0115                  336.86259104572116
0.0035                    -0.0105                  336.58058471623724
0.0035                    -0.0095                  336.3045405999596
0.0035                    -0.0085                  336.0229198437985
0.0035                    -0.0075                  335.99639638338283
0.0035                    -0.0065                  335.9425210761035
0.0035                    -0.0055                  335.9026807349794
0.0035                    -0.0045                  335.97005809072874
0.0035                    -0.0035                  336.05638008121224
0.0035                    -0.0025                  336.15144684379595
0.0035                    -0.0015                  336.2546166875898
0.0035                    -5.0E-4                  336.4349985497598
0.0035                    5.0E-4                   336.59640102815496
0.0035                    0.0015                   336.75047739594163
0.0035                    0.0025                   336.99220732799495
0.0035                    0.0035                   337.21107155608536
0.0035                    0.0045                   337.4270180093194
0.0035                    0.0055                   337.66442983509245
0.0035                    0.0065                   337.9611993036516
0.0035                    0.0075                   338.17029774171897
0.0035                    0.0085                   338.2546570324799
0.0035                    0.0095                   338.6283288863613
0.0035                    0.0105                   338.58803717395006
0.0035                    0.0115                   338.35978172150374
0.0035                    0.0125                   338.67771053202637
0.0035                    0.0135                   337.37757135033445
0.0035                    0.0145                   336.0463958015707
0.0035                    0.0155                   335.78787019062145
0.0035                    0.0165                   327.3206448587956
0.0035                    0.0175                   320.02389959065755
0.0035                    0.0185                   314.2709955927993
0.0035                    0.0195                   309.91014492358175
0.0035                    0.0205                   301.76285107099034
0.0035                    0.0215                   297.9277076070091
0.0035                    0.0225                   295.54482429134134
0.0035                    0.0235                   293.79416104513456
0.0035                    0.0245                   293.3465452203948
0.0035                    0.0255                   293.23661080474926
0.0035                    0.0265                   293.2760313853493
0.0035                    0.0275                   293.3736468780745
0.0035                    0.0285                   293.60029245903587
0.0035                    0.0295                   293.7488808845447
0.0035                    0.0305                   293.8609736153528
0.0035                    0.0315                   293.94057063889034
0.0045                    -0.0315                  359.00006421654143
0.0045                    -0.0305                  356.8927171051688
0.0045                    -0.0295                  354.8069290940273
0.0045                    -0.0285                  353.15445784663825
0.0045                    -0.0275                  351.53293808366857
0.0045                    -0.0265                  349.91141832069883
0.0045                    -0.0255                  349.46048310527317
0.0045                    -0.0245                  349.258531153618
0.0045                    -0.0235                  349.01194605269154
0.0045                    -0.0225                  348.49012964182236
0.0045                    -0.0215                  347.9728325624733
0.0045                    -0.0205                  347.3496778760365
0.0045                    -0.0195                  345.49988279184396
0.0045                    -0.0185                  343.6500877076515
0.0045                    -0.0175                  342.01627599761525
0.0045                    -0.0165                  340.3118522982869
0.0045                    -0.0155                  338.6074285989587
0.0045                    -0.0145                  337.40242751776276
0.0045                    -0.0135                  336.5957500565298
0.0045                    -0.0125                  335.78907259529694
0.0045                    -0.0115                  335.315903779826
0.0045                    -0.0105                  335.0636080665475
0.0045                    -0.0095                  334.811312353269
0.0045                    -0.0085                  334.7023645859186
0.0045                    -0.0075                  334.675841125503
0.0045                    -0.0065                  334.6468798798166
0.0045                    -0.0055                  334.689783733897
0.0045                    -0.0045                  334.75716108964633
0.0045                    -0.0035                  334.8295225134241
0.0045                    -0.0025                  334.93223308212737
0.0045                    -0.0015                  335.03540292592123
0.0045                    -5.0E-4                  335.16330075278006
0.0045                    5.0E-4                   335.30427059625003
0.0045                    0.0015                   335.44524043972
0.0045                    0.0025                   335.6301908496382
0.0045                    0.0035                   335.8374560115046
0.0045                    0.0045                   336.0447211733711
0.0045                    0.0055                   336.30339561144416
0.0045                    0.0065                   336.6131929807725
0.0045                    0.0075                   336.9229903501009
0.0045                    0.0085                   337.21463560100534
0.0045                    0.0095                   337.59474485035605
0.0045                    0.0105                   337.9719398567677
0.0045                    0.0115                   338.1264956499565
0.0045                    0.0125                   338.4444244604791
0.0045                    0.0135                   338.4043924726756
0.0045                    0.0145                   338.0087975152253
0.0045                    0.0155                   337.75027190427596
0.0045                    0.0165                   334.5857071720211
0.0045                    0.0175                   328.4309718738111
0.0045                    0.0185                   322.2762365756011
0.0045                    0.0195                   315.5819403783925
0.0045                    0.0205                   306.9715722604117
0.0045                    0.0215                   299.8902182502158
0.0045                    0.0225                   297.15951182134177
0.0045                    0.0235                   294.34910582962755
0.0045                    0.0245                   293.43201542312266
0.0045                    0.0255                   293.31511319255776
0.0045                    0.0265                   293.30454888668834
0.0045                    0.0275                   293.40731611525484
0.0045                    0.0285                   293.6380339274501
0.0045                    0.0295                   293.9044884867152
0.0045                    0.0305                   294.04232573012376
0.0045                    0.0315                   294.05529190043944
0.0055                    -0.0315                  358.70571327806306
0.0055                    -0.0305                  356.9002230124191
0.0055                    -0.0295                  355.1205063244439
0.0055                    -0.0285                  353.19768045856136
0.0055                    -0.0275                  351.57222264057333
0.0055                    -0.0265                  350.5705922431797
0.0055                    -0.0255                  350.3163130582983
0.0055                    -0.0245                  350.09029981124314
0.0055                    -0.0235                  349.4399091025012
0.0055                    -0.0225                  348.6361634498994
0.0055                    -0.0215                  348.11487396153996
0.0055                    -0.0205                  345.9002079120139
0.0055                    -0.0195                  343.63185955043053
0.0055                    -0.0185                  341.7659849014586
0.0055                    -0.0175                  339.9512058742681
0.0055                    -0.0165                  338.2307776181921
0.0055                    -0.0155                  336.58615974113224
0.0055                    -0.0145                  336.129640269525
0.0055                    -0.0135                  335.3231044979005
0.0055                    -0.0125                  334.66091057682013
0.0055                    -0.0115                  334.6379550720875
0.0055                    -0.0105                  334.37874123018673
0.0055                    -0.0095                  334.2459649440685
0.0055                    -0.0085                  334.34364416703687
0.0055                    -0.0075                  334.3109005838813
0.0055                    -0.0065                  334.3610022814805
0.0055                    -0.0055                  334.4750352377866
0.0055                    -0.0045                  334.53795587343177
0.0055                    -0.0035                  334.6273190129172
0.0055                    -0.0025                  334.7311848293159
0.0055                    -0.0015                  334.8318564825488
0.0055                    -5.0E-4                  334.91818119970355
0.0055                    5.0E-4                   335.0443687050773
0.0055                    0.0015                   335.1841920022137
0.0055                    0.0025                   335.26707857670283
0.0055                    0.0035                   335.4640914950392
0.0055                    0.0045                   335.66766595227165
0.0055                    0.0055                   335.7803956927266
0.0055                    0.0065                   336.0899379146192
0.0055                    0.0075                   336.3684651911432
0.0055                    0.0085                   336.57035784716277
0.0055                    0.0095                   336.950449397331
0.0055                    0.0105                   337.27157906852415
0.0055                    0.0115                   337.5257670436972
0.0055                    0.0125                   337.843188568201
0.0055                    0.0135                   338.1614921942355
0.0055                    0.0145                   338.13320376075603
0.0055                    0.0155                   337.860498321264
0.0055                    0.0165                   337.8430174499921
0.0055                    0.0175                   332.97915691599377
0.0055                    0.0185                   326.932552338982
0.0055                    0.0195                   318.3968563921627
0.0055                    0.0205                   309.5167439947431
0.0055                    0.0215                   301.6260663637124
0.0055                    0.0225                   296.7035212630813
0.0055                    0.0235                   294.50387571305237
0.0055                    0.0245                   293.38797533787704
0.0055                    0.0255                   293.2719421625119
0.0055                    0.0265                   293.33716678355296
0.0055                    0.0275                   293.4409853524351
0.0055                    0.0285                   293.66597965928247
0.0055                    0.0295                   293.905772974747
0.0055                    0.0305                   294.06327171703697
0.0055                    0.0315                   294.1669591793566
0.0065                    -0.0315                  358.95456896567384
0.0065                    -0.0305                  357.2170519280734
0.0065                    -0.0295                  355.42484505773365
0.0065                    -0.0285                  353.5020191918511
0.0065                    -0.0275                  351.7344231574071
0.0065                    -0.0265                  351.46592809946304
0.0065                    -0.0255                  351.19743304151905
0.0065                    -0.0245                  350.9212347448001
0.0065                    -0.0235                  349.8264221897465
0.0065                    -0.0225                  348.7316096346929
0.0065                    -0.0215                  347.38709564162434
0.0065                    -0.0205                  344.4125009392349
0.0065                    -0.0195                  341.4575185739546
0.0065                    -0.0185                  339.6211200683324
0.0065                    -0.0175                  337.8132067510441
0.0065                    -0.0165                  336.0288819104176
0.0065                    -0.0155                  335.1766368601357
0.0065                    -0.0145                  334.7201173885286
0.0065                    -0.0135                  334.1231740695719
0.0065                    -0.0125                  333.98629450118574
0.0065                    -0.0115                  334.0052621024339
0.0065                    -0.0105                  333.86960078174894
0.0065                    -0.0095                  333.99595910025255
0.0065                    -0.0085                  334.15079290070855
0.0065                    -0.0075                  334.183435418499
0.0065                    -0.0065                  334.3407047517558
0.0065                    -0.0055                  334.49797408501263
0.0065                    -0.0045                  334.58290579219624
0.0065                    -0.0035                  334.6918374952525
0.0065                    -0.0025                  334.80067113601945
0.0065                    -0.0015                  334.8947932501442
0.0065                    -5.0E-4                  334.9755673978815
0.0065                    5.0E-4                   335.06620700890807
0.0065                    0.0015                   335.17481667435726
0.0065                    0.0025                   335.24942221234244
0.0065                    0.0035                   335.3668169575808
0.0065                    0.0045                   335.502609868849
0.0065                    0.0055                   335.5972658205366
0.0065                    0.0065                   335.79552750588346
0.0065                    0.0075                   335.9740355023065
0.0065                    0.0085                   336.1180706876097
0.0065                    0.0095                   336.41440691224324
0.0065                    0.0105                   336.6327268113229
0.0065                    0.0115                   336.84315159606956