% Model:              SIMBench260525.mph
% Version:            COMSOL 6.2.0.339
% Date:               May 27 2026, 17:29
% Dimension:          2
% Nodes:              4096
% Expressions:        1
% Description:        温度
% Length unit:        m
% x                       y                        T (K)
5.0E-4                    -0.0315                  388.98946621423687
5.0E-4                    -0.0305                  387.2449318113005
5.0E-4                    -0.0295                  385.48437302122034
5.0E-4                    -0.0285                  382.21337311909724
5.0E-4                    -0.0275                  378.492879512641
5.0E-4                    -0.0265                  374.77238590618487
5.0E-4                    -0.0255                  370.89287381439703
5.0E-4                    -0.0245                  367.7198555010725
5.0E-4                    -0.0235                  364.5468371877481
5.0E-4                    -0.0225                  362.4125558017873
5.0E-4                    -0.0215                  360.57685151417104
5.0E-4                    -0.0205                  358.74114722655474
5.0E-4                    -0.0195                  357.68067366152883
5.0E-4                    -0.0185                  356.43026344618136
5.0E-4                    -0.0175                  355.17985323083394
5.0E-4                    -0.0165                  354.51266905207314
5.0E-4                    -0.0155                  353.50153835030176
5.0E-4                    -0.0145                  352.4904076485304
5.0E-4                    -0.0135                  351.97420192001755
5.0E-4                    -0.0125                  351.14476632648586
5.0E-4                    -0.0115                  350.31533073295407
5.0E-4                    -0.0105                  349.66608555947226
5.0E-4                    -0.0095                  348.8206100064808
5.0E-4                    -0.0085                  347.9751344534895
5.0E-4                    -0.0075                  346.8029759628959
5.0E-4                    -0.0065                  345.5805488509238
5.0E-4                    -0.0055                  344.35812173895164
5.0E-4                    -0.0045                  341.6940715504559
5.0E-4                    -0.0035                  337.0691769631077
5.0E-4                    -0.0025                  332.4442823757595
5.0E-4                    -0.0015                  327.17672987794344
5.0E-4                    -5.0E-4                  317.8190468199281
5.0E-4                    5.0E-4                   308.4613637619126
5.0E-4                    0.0015                   302.48047129259993
5.0E-4                    0.0025                   301.1934427479347
5.0E-4                    0.0035                   299.90641420326943
5.0E-4                    0.0045                   296.4778506729807
5.0E-4                    0.0055                   294.92494351859
5.0E-4                    0.0065                   293.4680045633679
5.0E-4                    0.0075                   293.1043789441458
5.0E-4                    0.0085                   293.1037617017873
5.0E-4                    0.0095                   293.4433693858341
5.0E-4                    0.0105                   294.7254590983653
5.0E-4                    0.0115                   296.07979219159216
5.0E-4                    0.0125                   299.0934935397489
5.0E-4                    0.0135                   300.72444867177336
5.0E-4                    0.0145                   302.35540380379774
5.0E-4                    0.0155                   307.88458732932526
5.0E-4                    0.0165                   315.48499059796467
5.0E-4                    0.0175                   322.68889890863557
5.0E-4                    0.0185                   326.5289612126462
5.0E-4                    0.0195                   330.93315053823574
5.0E-4                    0.0205                   334.9370887863617
5.0E-4                    0.0215                   336.95416540618123
5.0E-4                    0.0225                   338.5607420643732
5.0E-4                    0.0235                   340.2162817958474
5.0E-4                    0.0245                   342.0263671059357
5.0E-4                    0.0255                   343.8544745068394
5.0E-4                    0.0265                   345.7602203694785
5.0E-4                    0.0275                   348.65574007331844
5.0E-4                    0.0285                   351.59702384059864
5.0E-4                    0.0295                   354.62864997554334
5.0E-4                    0.0305                   356.6383384461285
5.0E-4                    0.0315                   358.64802691671366
0.0015                    -0.0315                  388.1877457963879
0.0015                    -0.0305                  386.8839933539342
0.0015                    -0.0295                  384.6182687460888
0.0015                    -0.0285                  380.85977542033424
0.0015                    -0.0275                  377.1190668089965
0.0015                    -0.0265                  373.1822588372712
0.0015                    -0.0255                  369.0656266596024
0.0015                    -0.0245                  365.48053053363304
0.0015                    -0.0235                  362.9435495359524
0.0015                    -0.0225                  360.96632907923015
0.0015                    -0.0215                  359.07768637575043
0.0015                    -0.0205                  357.73967695362245
0.0015                    -0.0195                  356.95702856483996
0.0015                    -0.0185                  355.89626568067274
0.0015                    -0.0175                  355.04100890009545
0.0015                    -0.0165                  354.6469531588771
0.0015                    -0.0155                  353.8947131443904
0.0015                    -0.0145                  353.2224757664627
0.0015                    -0.0135                  352.9417892191251
0.0015                    -0.0125                  352.34609595885195
0.0015                    -0.0115                  351.6520707816204
0.0015                    -0.0105                  351.11369109499884
0.0015                    -0.0095                  350.3983604384063
0.0015                    -0.0085                  349.3670760073205
0.0015                    -0.0075                  348.1162670031175
0.0015                    -0.0065                  346.8818849666257
0.0015                    -0.0055                  345.0894786449136
0.0015                    -0.0045                  342.6129812193129
0.0015                    -0.0035                  338.8897344011384
0.0015                    -0.0025                  334.4665224216442
0.0015                    -0.0015                  330.2878078867078
0.0015                    -5.0E-4                  323.0870769076902
0.0015                    5.0E-4                   315.00999047749383
0.0015                    0.0015                   308.4754203470393
0.0015                    0.0025                   305.14439949975224
0.0015                    0.0035                   302.17276913170565
0.0015                    0.0045                   297.3508969792231
0.0015                    0.0055                   294.8587089088861
0.0015                    0.0065                   293.83483097547946
0.0015                    0.0075                   293.0214939497296
0.0015                    0.0085                   293.053886639727
0.0015                    0.0095                   293.79401803251363
0.0015                    0.0105                   294.72688708350665
0.0015                    0.0115                   297.0310032023819
0.0015                    0.0125                   301.12288348697416
0.0015                    0.0135                   303.7679911279769
0.0015                    0.0145                   307.1037050882619
0.0015                    0.0155                   311.8086107313161
0.0015                    0.0165                   318.6499850940978
0.0015                    0.0175                   323.21531590262174
0.0015                    0.0185                   326.5093481367711
0.0015                    0.0195                   330.8070950996812
0.0015                    0.0205                   333.77807613312297
0.0015                    0.0215                   336.4489487834694
0.0015                    0.0225                   338.06492189371613
0.0015                    0.0235                   339.7918047237264
0.0015                    0.0245                   341.55138519919905
0.0015                    0.0255                   343.4241104595657
0.0015                    0.0265                   345.3840261284896
0.0015                    0.0275                   347.76743137758234
0.0015                    0.0285                   350.78845125217055
0.0015                    0.0295                   354.08388960770657
0.0015                    0.0305                   356.59613969764655
0.0015                    0.0315                   358.2832876567087
0.0025                    -0.0315                  387.38602537853893
0.0025                    -0.0305                  385.6428553193763
0.0025                    -0.0295                  383.1097682098751
0.0025                    -0.0285                  379.3835943429156
0.0025                    -0.0275                  375.4179352810298
0.0025                    -0.0265                  371.25148801354754
0.0025                    -0.0255                  367.1741038559735
0.0025                    -0.0245                  363.65296211183056
0.0025                    -0.0235                  361.6544768041192
0.0025                    -0.0225                  359.6370434769086
0.0025                    -0.0215                  357.83650872627527
0.0025                    -0.0205                  357.0715782866863
0.0025                    -0.0195                  356.3066478470972
0.0025                    -0.0185                  355.6997833311361
0.0025                    -0.0175                  355.33855517586426
0.0025                    -0.0165                  354.9651155567595
0.0025                    -0.0155                  354.7208529932866
0.0025                    -0.0145                  354.488429523406
0.0025                    -0.0135                  354.21917182425824
0.0025                    -0.0125                  353.9716534153368
0.0025                    -0.0115                  353.4410543476172
0.0025                    -0.0105                  352.88968616671144
0.0025                    -0.0095                  352.18871251437065
0.0025                    -0.0085                  350.89981237729427
0.0025                    -0.0075                  349.6434642080584
0.0025                    -0.0065                  348.10096855440986
0.0025                    -0.0055                  345.5577509557084
0.0025                    -0.0045                  343.081859867978
0.0025                    -0.0035                  340.4172344678044
0.0025                    -0.0025                  336.22577369069336
0.0025                    -0.0015                  332.049562703649
0.0025                    -5.0E-4                  327.9569490308629
0.0025                    5.0E-4                   321.5168674546122
0.0025                    0.0015                   314.9928643670412
0.0025                    0.0025                   308.4590171076237
0.0025                    0.0035                   303.60917025578624
0.0025                    0.0045                   298.75932340394877
0.0025                    0.0055                   294.95911859278766
0.0025                    0.0065                   294.1277200341324
0.0025                    0.0075                   293.296321475477
0.0025                    0.0085                   293.33943594282044
0.0025                    0.0095                   294.0776064326916
0.0025                    0.0105                   294.81577692256286
0.0025                    0.0115                   298.34590249097175
0.0025                    0.0125                   302.43587078216683
0.0025                    0.0135                   306.6583544642177
0.0025                    0.0145                   311.3668918568111
0.0025                    0.0155                   316.07132234595974
0.0025                    0.0165                   320.0936064574982
0.0025                    0.0175                   323.37726555960944
0.0025                    0.0185                   326.6609246617206
0.0025                    0.0195                   329.8232095097191
0.0025                    0.0205                   332.599653529634
0.0025                    0.0215                   335.3760975495489
0.0025                    0.0225                   337.83907360035596
0.0025                    0.0235                   339.5798156574767
0.0025                    0.0245                   341.3298604036514
0.0025                    0.0255                   343.1835880117295
0.0025                    0.0265                   345.02855391760386
0.0025                    0.0275                   346.96774755642474
0.0025                    0.0285                   350.162089085972
0.0025                    0.0295                   353.5800701327121
0.0025                    0.0305                   356.2583239556229
0.0025                    0.0315                   357.90766424406286
0.0035                    -0.0315                  385.75561234317115
0.0035                    -0.0305                  383.57759126006357
0.0035                    -0.0295                  381.4735405455277
0.0035                    -0.0285                  377.63101921861335
0.0035                    -0.0275                  373.09048561759033
0.0035                    -0.0265                  368.6437029332909
0.0035                    -0.0255                  364.5663187757168
0.0035                    -0.0245                  362.8112423627075
0.0035                    -0.0235                  361.0353133037663
0.0035                    -0.0225                  359.0178799765558
0.0035                    -0.0215                  358.59496226171734
0.0035                    -0.0205                  358.2975177512187
0.0035                    -0.0195                  357.53258731162964
0.0035                    -0.0185                  357.90727167938877
0.0035                    -0.0175                  358.26923469215933
0.0035                    -0.0165                  357.8957950730545
0.0035                    -0.0155                  358.4300619647025
0.0035                    -0.0145                  358.8837403787579
0.0035                    -0.0135                  358.61448267961015
0.0035                    -0.0125                  358.4956315994247
0.0035                    -0.0115                  358.2619008687683
0.0035                    -0.0105                  357.7105326878626
0.0035                    -0.0095                  356.02628256338176
0.0035                    -0.0085                  354.2304327671701
0.0035                    -0.0075                  352.9740845979343
0.0035                    -0.0065                  349.42485470846464
0.0035                    -0.0055                  345.7075671587362
0.0035                    -0.0045                  343.2316760710058
0.0035                    -0.0035                  339.183875261612
0.0035                    -0.0025                  334.7058295037609
0.0035                    -0.0015                  330.52961851671654
0.0035                    -5.0E-4                  327.032303548103
0.0035                    5.0E-4                   322.5308248183095
0.0035                    0.0015                   316.0068217307385
0.0035                    0.0025                   309.1374351550449
0.0035                    0.0035                   303.1886742916058
0.0035                    0.0045                   298.33882743976835
0.0035                    0.0055                   295.44462114909817
0.0035                    0.0065                   293.92893552371504
0.0035                    0.0075                   293.2920749911016
0.0035                    0.0085                   293.28019182639446
0.0035                    0.0095                   293.95578867294137
0.0035                    0.0105                   295.57892885079684
0.0035                    0.0115                   298.32183610743164
0.0035                    0.0125                   302.41180439862677
0.0035                    0.0135                   307.1242491912465
0.0035                    0.0145                   311.96161553770395
0.0035                    0.0155                   316.66604602685265
0.0035                    0.0165                   318.86111324708804
0.0035                    0.0175                   321.56591024792175
0.0035                    0.0185                   324.8757529025697
0.0035                    0.0195                   328.36534578108706
0.0035                    0.0205                   331.326376457802
0.0035                    0.0215                   334.52880448165405
0.0035                    0.0225                   338.4836596476514
0.0035                    0.0235                   340.23071272208244
0.0035                    0.0245                   342.07841681227814
0.0035                    0.0255                   343.9546734304123
0.0035                    0.0265                   345.79963933628665
0.0035                    0.0275                   347.63374509978655
0.0035                    0.0285                   350.1792254880408
0.0035                    0.0295                   353.3988845879903
0.0035                    0.0305                   355.89824757148995
0.0035                    0.0315                   357.65385389621144
0.0045                    -0.0315                  384.4496083461563
0.0045                    -0.0305                  382.0844421713157
0.0045                    -0.0295                  379.72515493923896
0.0045                    -0.0285                  375.3800584913439
0.0045                    -0.0275                  370.82252805852863
0.0045                    -0.0265                  366.26499762571336
0.0045                    -0.0255                  363.59123670975464
0.0045                    -0.0245                  361.96952261358433
0.0045                    -0.0235                  360.347808517414
0.0045                    -0.0225                  359.27570694090616
0.0045                    -0.0215                  359.3202741073214
0.0045                    -0.0205                  359.36484127373666
0.0045                    -0.0195                  359.3202861398076
0.0045                    -0.0185                  360.1147600276415
0.0045                    -0.0175                  360.90923391547545
0.0045                    -0.0165                  361.2999742061234
0.0045                    -0.0155                  362.13927093611824
0.0045                    -0.0145                  362.978567666113
0.0045                    -0.0135                  363.0889678029965
0.0045                    -0.0125                  363.0196097835126
0.0045                    -0.0115                  362.95025176402874
0.0045                    -0.0105                  361.9465978051963
0.0045                    -0.0095                  359.863852612393
0.0045                    -0.0085                  357.7811074195896
0.0045                    -0.0075                  355.1466317464341
0.0045                    -0.0065                  350.7487408625194
0.0045                    -0.0055                  346.3508499786047
0.0045                    -0.0045                  342.5974105364587
0.0045                    -0.0035                  337.9505160554197
0.0045                    -0.0025                  333.3036215743806
0.0045                    -0.0015                  329.34987265204177
0.0045                    -5.0E-4                  326.1076580653431
0.0045                    5.0E-4                   322.86544347864435
0.0045                    0.0015                   316.82924469581485
0.0045                    0.0025                   309.86255853152954
0.0045                    0.0035                   302.89587236724424
0.0045                    0.0045                   299.14672441498317
0.0045                    0.0055                   296.30653380075756
0.0045                    0.0065                   293.7301510132978
0.0045                    0.0075                   293.5890110065133
0.0045                    0.0085                   293.5771278418062
0.0045                    0.0095                   294.0020294294282
0.0045                    0.0105                   296.4902163039089
0.0045                    0.0115                   298.9784031783896
0.0045                    0.0125                   302.6715070172726
0.0045                    0.0135                   307.5901439182752
0.0045                    0.0145                   312.50878081927794
0.0045                    0.0155                   315.79711990079574
0.0045                    0.0165                   317.80312808488316
0.0045                    0.0175                   319.80913626897063
0.0045                    0.0185                   323.1910064657883
0.0045                    0.0195                   326.6805993443056
0.0045                    0.0205                   330.05309938597003
0.0045                    0.0215                   333.98743889692435
0.0045                    0.0225                   337.94229406292175
0.0045                    0.0235                   340.92523707174115
0.0045                    0.0245                   342.82697322090485
0.0045                    0.0255                   344.72447024481727
0.0045                    0.0265                   346.55773247778075
0.0045                    0.0275                   348.3909947107443
0.0045                    0.0285                   350.9850106239208
0.0045                    0.0295                   353.5958908439138
0.0045                    0.0305                   355.77861457342885
0.0045                    0.0315                   357.76633644578976
0.0055                    -0.0315                  383.1436043491415
0.0055                    -0.0305                  380.82537387449725
0.0055                    -0.0295                  378.5109762652852
0.0055                    -0.0285                  373.786991317764
0.0055                    -0.0275                  369.20245143891805
0.0055                    -0.0265                  365.4157527290647
0.0055                    -0.0255                  363.47068974742075
0.0055                    -0.0245                  361.753932781749
0.0055                    -0.0235                  360.17940867269385
0.0055                    -0.0225                  360.73245511219045
0.0055                    -0.0215                  360.76813840399507
0.0055                    -0.0205                  360.8038216957997
0.0055                    -0.0195                  362.4743961269145
0.0055                    -0.0185                  363.302177600479
0.0055                    -0.0175                  364.1609684874205
0.0055                    -0.0165                  365.9288250544304
0.0055                    -0.0155                  366.77762822513887
0.0055                    -0.0145                  367.60528099339246
0.0055                    -0.0135                  367.9730355861352
0.0055                    -0.0125                  367.90217633515476
0.0055                    -0.0115                  367.7627889074631
0.0055                    -0.0105                  365.22641756915954
0.0055                    -0.0095                  363.1484710639063
0.0055                    -0.0085                  361.0415194841705
0.0055                    -0.0075                  355.1730059415233
0.0055                    -0.0065                  350.7840782910487
0.0055                    -0.0055                  346.3951506405741
0.0055                    -0.0045                  339.9019304699723
0.0055                    -0.0035                  335.2573305485491
0.0055                    -0.0025                  330.61764569056334
0.0055                    -0.0015                  327.24285031419544
0.0055                    -5.0E-4                  323.98929157956115
0.0055                    5.0E-4                   320.7492125187727
0.0055                    0.0015                   316.7364339491173
0.0055                    0.0025                   309.76514802040384
0.0055                    0.0035                   303.2169967646963
0.0055                    0.0045                   298.91157680277956
0.0055                    0.0055                   296.05878323071113
0.0055                    0.0065                   294.0275715090087
0.0055                    0.0075                   293.5775371237068
0.0055                    0.0085                   293.5616890639103
0.0055                    0.0095                   294.2779749702912
0.0055                    0.0105                   296.45006709562097
0.0055                    0.0115                   298.92498183514624
0.0055                    0.0125                   303.09312189287533
0.0055                    0.0135                   308.006646418218
0.0055                    0.0145                   312.4373797670928
0.0055                    0.0155                   314.1485464157904
0.0055                    0.0165                   316.1505861895388
0.0055                    0.0175                   318.04499937818593
0.0055                    0.0185                   320.3938568306894
0.0055                    0.0195                   323.8703061809696
0.0055                    0.0205                   328.0238517441635
0.0055                    0.0215                   332.27655994247175
0.0055                    0.0225                   336.23772824667185
0.0055                    0.0235                   341.52930187547923
0.0055                    0.0245                   344.0738038611828
0.0055                    0.0255                   345.8910051331783
0.0055                    0.0265                   347.46077113736004
0.0055                    0.0275                   349.17991553980784
0.0055                    0.0285                   351.7537636348554
0.0055                    0.0295                   354.30215016384443
0.0055                    0.0305                   356.23218762454746
0.0055                    0.0315                   357.8837042096718
0.0065                    -0.0315                  382.02079511851565
0.0065                    -0.0305                  379.6111952005435
0.0065                    -0.0295                  377.15369018573244
0.0065                    -0.0285                  372.36856308652386
0.0065                    -0.0275                  367.5834359873153
0.0065                    -0.0265                  365.4428669689328
0.0065                    -0.0255                  363.46822391856136
0.0065                    -0.0245                  361.65509183019174
0.0065                    -0.0235                  361.5823303667274
0.0065                    -0.0225                  362.268807360872
0.0065                    -0.0215                  362.59530594310314
0.0065                    -0.0205                  363.7254671344384
0.0065                    -0.0195                  365.6635831523879
0.0065                    -0.0185                  366.9485975729833
0.0065                    -0.0175                  368.4909627324661
0.0065                    -0.0165                  370.39176138648816
0.0065                    -0.0155                  371.7671736540908
0.0065                    -0.0145                  372.3131715926885
0.0065                    -0.0135                  372.73306261701987
0.0065                    -0.0125                  372.9163239509781
0.0065                    -0.0115                  371.147181466247
0.0065                    -0.0105                  368.5555579923758
0.0065                    -0.0095                  366.2153190262547
0.0065                    -0.0085                  361.55495572580224
0.0065                    -0.0075                  355.4783005136486
0.0065                    -0.0065                  350.26946033268825
0.0065                    -0.0055                  344.3461311885801
0.0065                    -0.0045                  337.5506646705328
0.0065                    -0.0035                  331.91481083916625
0.0065                    -0.0025                  328.0734324192436
0.0065                    -0.0015                  324.674719745619
0.0065                    -5.0E-4                  321.3616970134614
0.0065                    5.0E-4                   318.22868187672873
0.0065                    0.0015                   315.140509184602
0.0065                    0.0025                   309.34252832620155
0.0065                    0.0035                   303.8842961128769
0.0065                    0.0045                   298.6342310157362
0.0065                    0.0055                   295.54727805496145
0.0065                    0.0065                   294.4939454695823
0.0065                    0.0075                   293.4657290201991
0.0065                    0.0085                   293.76191827804075
0.0065                    0.0095                   294.7997510397372
0.0065                    0.0105                   296.14960008144436
0.0065                    0.0115                   299.58855302293966