% Model:              SIMBench260525.mph
% Version:            COMSOL 6.2.0.339
% Date:               May 27 2026, 18:03
% Dimension:          2
% Nodes:              4096
% Expressions:        1
% Description:        温度
% Length unit:        m
% x                       y                        T (K)
5.0E-4                    -0.0315                  398.3264605623565
5.0E-4                    -0.0305                  396.54074355038256
5.0E-4                    -0.0295                  394.7415833035087
5.0E-4                    -0.0285                  391.2190617765551
5.0E-4                    -0.0275                  387.1878475510578
5.0E-4                    -0.0265                  383.1566333255605
5.0E-4                    -0.0255                  378.7428177595452
5.0E-4                    -0.0245                  374.79747820477394
5.0E-4                    -0.0235                  370.87947026605264
5.0E-4                    -0.0225                  367.96013440425617
5.0E-4                    -0.0215                  365.385893411536
5.0E-4                    -0.0205                  362.901203111842
5.0E-4                    -0.0195                  361.31737596266805
5.0E-4                    -0.0185                  359.79789720237306
5.0E-4                    -0.0175                  358.36924744612776
5.0E-4                    -0.0165                  357.3833774950084
5.0E-4                    -0.0155                  356.3601941599411
5.0E-4                    -0.0145                  355.42167360425697
5.0E-4                    -0.0135                  354.6805688858314
5.0E-4                    -0.0125                  353.87122901697785
5.0E-4                    -0.0115                  353.14939526322667
5.0E-4                    -0.0105                  352.4990679912647
5.0E-4                    -0.0095                  351.7724616441466
5.0E-4                    -0.0085                  351.1411903931538
5.0E-4                    -0.0075                  350.49993175964374
5.0E-4                    -0.0065                  349.7869170659302
5.0E-4                    -0.0055                  349.17357206982257
5.0E-4                    -0.0045                  348.4956156406742
5.0E-4                    -0.0035                  347.7632889731556
5.0E-4                    -0.0025                  347.10853452129766
5.0E-4                    -0.0015                  346.31841658394865
5.0E-4                    -5.0E-4                  345.49216937418987
5.0E-4                    5.0E-4                   344.65272118663904
5.0E-4                    0.0015                   343.38124685639104
5.0E-4                    0.0025                   342.07599258996413
5.0E-4                    0.0035                   340.53412952744515
5.0E-4                    0.0045                   335.5156882150379
5.0E-4                    0.0055                   330.46583916080857
5.0E-4                    0.0065                   326.2348910019798
5.0E-4                    0.0075                   317.58476705344674
5.0E-4                    0.0085                   308.93464310491356
5.0E-4                    0.0095                   302.6683295735414
5.0E-4                    0.0105                   301.8074237419852
5.0E-4                    0.0115                   300.94651791042895
5.0E-4                    0.0125                   297.03374465899566
5.0E-4                    0.0135                   295.23260160030156
5.0E-4                    0.0145                   293.5454279462484
5.0E-4                    0.0155                   293.1186679027961
5.0E-4                    0.0165                   293.1090538558831
5.0E-4                    0.0175                   293.3107292422755
5.0E-4                    0.0185                   294.07590803532946
5.0E-4                    0.0195                   294.8852670416921
5.0E-4                    0.0205                   296.5708610577374
5.0E-4                    0.0215                   297.36534076644307
5.0E-4                    0.0225                   298.15982047514876
5.0E-4                    0.0235                   300.4615528038122
5.0E-4                    0.0245                   304.52622802718906
5.0E-4                    0.0255                   308.590903250566
5.0E-4                    0.0265                   311.0289729387761
5.0E-4                    0.0275                   314.352623346188
5.0E-4                    0.0285                   317.67627375359996
5.0E-4                    0.0295                   320.1365871672693
5.0E-4                    0.0305                   321.46354627232864
5.0E-4                    0.0315                   322.79050537738806
0.0015                    -0.0315                  397.5531296647092
0.0015                    -0.0305                  396.2613053328623
0.0015                    -0.0295                  393.8402138783771
0.0015                    -0.0285                  389.98305140045727
0.0015                    -0.0275                  386.0316776538513
0.0015                    -0.0265                  381.59403749568185
0.0015                    -0.0255                  376.934123290029
0.0015                    -0.0245                  372.76733104361176
0.0015                    -0.0235                  369.38179306226914
0.0015                    -0.0225                  366.2327980496294
0.0015                    -0.0215                  363.54287888155176
0.0015                    -0.0205                  361.67329116248135
0.0015                    -0.0195                  360.03333844384275
0.0015                    -0.0185                  358.49750965581495
0.0015                    -0.0175                  357.4425201261837
0.0015                    -0.0165                  356.4990480214318
0.0015                    -0.0155                  355.48152319778757
0.0015                    -0.0145                  354.7890548087622
0.0015                    -0.0135                  354.1495045131581
0.0015                    -0.0125                  353.3411226076893
0.0015                    -0.0115                  352.81484810510005
0.0015                    -0.0105                  352.30204753060934
0.0015                    -0.0095                  351.5754411834911
0.0015                    -0.0085                  351.116405821856
0.0015                    -0.0075                  350.6361875014192
0.0015                    -0.0065                  349.9298489611584
0.0015                    -0.0055                  349.46044505024895
0.0015                    -0.0045                  348.94381364916285
0.0015                    -0.0035                  348.22640186083294
0.0015                    -0.0025                  347.65742651915934
0.0015                    -0.0015                  347.0253244159919
0.0015                    -5.0E-4                  346.19527292047866
0.0015                    5.0E-4                   345.3446175418869
0.0015                    0.0015                   344.3528492316533
0.0015                    0.0025                   342.9614861347735
0.0015                    0.0035                   341.266408394707
0.0015                    0.0045                   338.32364535444174
0.0015                    0.0055                   333.75731328145423
0.0015                    0.0065                   330.3873301979301
0.0015                    0.0075                   324.6707275728078
0.0015                    0.0085                   316.8465859362555
0.0015                    0.0095                   310.4246065198333
0.0015                    0.0105                   306.91034939428823
0.0015                    0.0115                   303.8415519642732
0.0015                    0.0125                   298.11974293383724
0.0015                    0.0135                   295.1720296399884
0.0015                    0.0145                   293.99630661716844
0.0015                    0.0155                   293.04891909594687
0.0015                    0.0165                   293.0530825336424
0.0015                    0.0175                   293.5085365982103
0.0015                    0.0185                   294.06738665071543
0.0015                    0.0195                   295.3271620401002
0.0015                    0.0205                   297.6109594142353
0.0015                    0.0215                   299.12416869885124
0.0015                    0.0225                   300.4219510079621
0.0015                    0.0235                   302.68516994567216
0.0015                    0.0245                   306.02936568484154
0.0015                    0.0255                   309.0688027783967
0.0015                    0.0265                   310.6664148533231
0.0015                    0.0275                   313.34357474947205
0.0015                    0.0285                   316.43661377567537
0.0015                    0.0295                   319.00216852197394
0.0015                    0.0305                   320.7245149904799
0.0015                    0.0315                   321.7363176771123
0.0025                    -0.0315                  396.77979876706195
0.0025                    -0.0305                  395.0674380090137
0.0025                    -0.0295                  392.46524105352285
0.0025                    -0.0285                  388.6283130949845
0.0025                    -0.0275                  384.2844634420605
0.0025                    -0.0265                  379.60557936446065
0.0025                    -0.0255                  374.9935303187779
0.0025                    -0.0245                  370.8795794757121
0.0025                    -0.0235                  367.7460533010948
0.0025                    -0.0225                  364.6125271264774
0.0025                    -0.0215                  362.12855159634563
0.0025                    -0.0205                  360.4871551185599
0.0025                    -0.0195                  358.8457586407742
0.0025                    -0.0185                  357.58654814315486
0.0025                    -0.0175                  356.63984613543084
0.0025                    -0.0165                  355.6931441277068
0.0025                    -0.0155                  354.97412429054475
0.0025                    -0.0145                  354.32967917388953
0.0025                    -0.0135                  353.6852340572343
0.0025                    -0.0125                  353.1865788115526
0.0025                    -0.0115                  352.6798386345605
0.0025                    -0.0105                  352.17309845756847
0.0025                    -0.0095                  351.7443303256452
0.0025                    -0.0085                  351.29194924043054
0.0025                    -0.0075                  350.839568155216
0.0025                    -0.0065                  350.39345120674784
0.0025                    -0.0055                  349.92328494920184
0.0025                    -0.0045                  349.4531186916559
0.0025                    -0.0035                  348.88587460558324
0.0025                    -0.0025                  348.3163948365893
0.0025                    -0.0015                  347.74691506759547
0.0025                    -5.0E-4                  346.89383463157355
0.0025                    5.0E-4                   346.0431789578116
0.0025                    0.0015                   345.1925232840496
0.0025                    0.0025                   343.61860738643645
0.0025                    0.0035                   341.92197481459505
0.0025                    0.0045                   340.22534224275364
0.0025                    0.0055                   337.20004647027895
0.0025                    0.0065                   333.8155594228042
0.0025                    0.0075                   330.43107237532945
0.0025                    0.0085                   324.54615282195346
0.0025                    0.0095                   318.11152796557394
0.0025                    0.0105                   311.47254664457387
0.0025                    0.0115                   305.53055905205395
0.0025                    0.0125                   299.80959596943615
0.0025                    0.0135                   295.3049764324403
0.0025                    0.0145                   294.3549027969571
0.0025                    0.0155                   293.40482916147397
0.0025                    0.0165                   293.2123762791755
0.0025                    0.0175                   293.66972945555574
0.0025                    0.0185                   294.12708263193593
0.0025                    0.0195                   296.0294626063408
0.0025                    0.0205                   298.33777843115126
0.0025                    0.0215                   300.6460942559617
0.0025                    0.0225                   302.93903116238033
0.0025                    0.0235                   305.2123511020528
0.0025                    0.0245                   307.45271869862336
0.0025                    0.0255                   309.0660939666845
0.0025                    0.0265                   310.66370604161085
0.0025                    0.0275                   312.334526152756
0.0025                    0.0285                   314.97819210794296
0.0025                    0.0295                   317.38926080792675
0.0025                    0.0305                   319.3697082944715
0.0025                    0.0315                   320.67576138472805
0.0035                    -0.0315                  395.206112077676
0.0035                    -0.0305                  393.14259908531915
0.0035                    -0.0295                  391.0109139373793
0.0035                    -0.0285                  386.8939462820068
0.0035                    -0.0275                  381.706497451569
0.0035                    -0.0265                  376.67833304885323
0.0035                    -0.0255                  372.13711375902017
0.0035                    -0.0245                  368.8202140085943
0.0035                    -0.0235                  365.59280838650784
0.0035                    -0.0225                  362.550414460984
0.0035                    -0.0215                  361.0840026757431
0.0035                    -0.0205                  359.5152824138147
0.0035                    -0.0195                  357.9818330832831
0.0035                    -0.0185                  357.3754406761243
0.0035                    -0.0175                  356.5476926200165
0.0035                    -0.0165                  355.70430931716294
0.0035                    -0.0155                  355.4844338294512
0.0035                    -0.0145                  354.9613303528736
0.0035                    -0.0135                  354.418983635228
0.0035                    -0.0125                  354.3404769389396
0.0035                    -0.0115                  353.93009461025
0.0035                    -0.0105                  353.5017548916833
0.0035                    -0.0095                  353.3561272299761
0.0035                    -0.0085                  352.9562450429764
0.0035                    -0.0075                  352.5321240107632
0.0035                    -0.0065                  352.18516955820417
0.0035                    -0.0055                  351.72870445505015
0.0035                    -0.0045                  351.16435874438116
0.0035                    -0.0035                  350.4064872066127
0.0035                    -0.0025                  349.8280263257733
0.0035                    -0.0015                  348.9633214014657
0.0035                    -5.0E-4                  347.64437783792874
0.0035                    5.0E-4                   346.79372216416675
0.0035                    0.0015                   345.50571914644513
0.0035                    0.0025                   343.6999945488725
0.0035                    0.0035                   342.00336197703115
0.0035                    0.0045                   340.1133906554828
0.0035                    0.0055                   337.8501142143483
0.0035                    0.0065                   334.46562716687356
0.0035                    0.0075                   331.2390065448991
0.0035                    0.0085                   327.2951524775916
0.0035                    0.0095                   320.8605276212121
0.0035                    0.0105                   312.78259327716484
0.0035                    0.0115                   305.2430356270273
0.0035                    0.0125                   299.5220725444095
0.0035                    0.0135                   296.00535816515895
0.0035                    0.0145                   294.13865126324924
0.0035                    0.0155                   293.355844539179
0.0035                    0.0165                   293.1911732758178
0.0035                    0.0175                   293.5794345528592
0.0035                    0.0185                   294.46311697467615
0.0035                    0.0195                   295.97242215629143
0.0035                    0.0205                   298.2807379811019
0.0035                    0.0215                   300.7822327275138
0.0035                    0.0225                   303.3325739007687
0.0035                    0.0235                   305.6058938404412
0.0035                    0.0245                   307.1607334374882
0.0035                    0.0255                   308.3296642416242
0.0035                    0.0265                   309.97772289054467
0.0035                    0.0275                   311.176459491227
0.0035                    0.0285                   313.07381976146013
0.0035                    0.0295                   315.4097624525397
0.0035                    0.0305                   317.30448182828974
0.0035                    0.0315                   318.85343281247276
0.0045                    -0.0315                  393.85205095226786
0.0045                    -0.0305                  391.6458325788427
0.0045                    -0.0295                  389.42585050530613
0.0045                    -0.0285                  384.3787655415397
0.0045                    -0.0275                  379.1757825415449
0.0045                    -0.0265                  373.97279954155016
0.0045                    -0.0255                  370.09095065264677
0.0045                    -0.0245                  366.7740509022208
0.0045                    -0.0235                  363.45715115179485
0.0045                    -0.0225                  361.4715531291838
0.0045                    -0.0215                  360.0051413439429
0.0045                    -0.0205                  358.538729558702
0.0045                    -0.0195                  357.6818104761355
0.0045                    -0.0185                  357.07541806897666
0.0045                    -0.0175                  356.45553910460217
0.0045                    -0.0165                  356.0766324777213
0.0045                    -0.0155                  355.85675699000956
0.0045                    -0.0145                  355.5929815318576
0.0045                    -0.0135                  355.4062033071694
0.0045                    -0.0125                  355.32769661088093
0.0045                    -0.0115                  355.18035058593955
0.0045                    -0.0105                  354.9781297975486
0.0045                    -0.0095                  354.8325021358414
0.0045                    -0.0085                  354.62054084552216
0.0045                    -0.0075                  354.26198989549187
0.0045                    -0.0065                  353.9150354429329
0.0045                    -0.0055                  353.53412396089834
0.0045                    -0.0045                  352.79160637944756
0.0045                    -0.0035                  352.03373484167923
0.0045                    -0.0025                  351.33361456388724
0.0045                    -0.0015                  350.0064038076515
0.0045                    -5.0E-4                  348.6791930514158
0.0045                    5.0E-4                   347.47540964670276
0.0045                    0.0015                   345.660009341344
0.0045                    0.0025                   343.8446090359853
0.0045                    0.0035                   342.0335031307891
0.0045                    0.0045                   339.96515120439955
0.0045                    0.0055                   337.89679927800995
0.0045                    0.0065                   335.17688913896063
0.0045                    0.0075                   332.0481606556249
0.0045                    0.0085                   328.9194321722892
0.0045                    0.0095                   322.76051427110076
0.0045                    0.0105                   314.0926399097557
0.0045                    0.0115                   305.42476554841056
0.0045                    0.0125                   300.5675066782155
0.0045                    0.0135                   297.1428639147844
0.0045                    0.0145                   293.92239972954144
0.0045                    0.0155                   293.6140480791141
0.0045                    0.0165                   293.4493768157529
0.0045                    0.0175                   293.5404370253326
0.0045                    0.0185                   294.9403206873352
0.0045                    0.0195                   296.3402043493378
0.0045                    0.0205                   298.3068115243923
0.0045                    0.0215                   300.94901608330906
0.0045                    0.0225                   303.59122064222584
0.0045                    0.0235                   305.99943657882955
0.0045                    0.0245                   306.87000729878935
0.0045                    0.0255                   307.6257627653815
0.0045                    0.0265                   308.76488490589634
0.0045                    0.0275                   309.8108228947792
0.0045                    0.0285                   311.6374212994817
0.0045                    0.0295                   313.6537683996482
0.0045                    0.0305                   315.406191949844
0.0045                    0.0315                   317.08031357116266
0.0055                    -0.0315                  392.4979898268598
0.0055                    -0.0305                  390.2174620132662
0.0055                    -0.0295                  387.8926048546775
0.0055                    -0.0285                  382.3654285151414
0.0055                    -0.0275                  377.1323450148761
0.0055                    -0.0265                  372.3959423943776
0.0055                    -0.0255                  368.5701794713907
0.0055                    -0.0245                  365.2137144383371
0.0055                    -0.0235                  362.42694618186624
0.0055                    -0.0225                  361.01938296402255
0.0055                    -0.0215                  359.55103791691755
0.0055                    -0.0205                  358.5439771574979
0.0055                    -0.0195                  358.11343674163646
0.0055                    -0.0185                  357.49721658541176
0.0055                    -0.0175                  357.21994759135526
0.0055                    -0.0165                  357.22074905842226
0.0055                    -0.0155                  356.9905155044836
0.0055                    -0.0145                  356.97372258861805
0.0055                    -0.0135                  357.06148671037994
0.0055                    -0.0125                  356.97757047235206
0.0055                    -0.0115                  356.7768638616441
0.0055                    -0.0105                  356.5467169619746
0.0055                    -0.0095                  356.40073853907575
0.0055                    -0.0085                  355.8275922829321
0.0055                    -0.0075                  355.23195591857865
0.0055                    -0.0065                  354.8859351274682
0.0055                    -0.0055                  353.96599685271605
0.0055                    -0.0045                  353.00795521932594
0.0055                    -0.0035                  352.25104142768726
0.0055                    -0.0025                  350.9429139266927
0.0055                    -0.0015                  349.5326898151706
0.0055                    -5.0E-4                  348.2063414632926
0.0055                    5.0E-4                   346.47080462528083
0.0055                    0.0015                   344.6333629167029
0.0055                    0.0025                   342.81695863620075
0.0055                    0.0035                   340.77221712781534
0.0055                    0.0045                   338.6872313627987
0.0055                    0.0055                   336.6075166293133
0.0055                    0.0065                   334.5982856334336
0.0055                    0.0075                   331.5150795481588
0.0055                    0.0085                   328.3609552765096
0.0055                    0.0095                   323.0619277360671
0.0055                    0.0105                   314.3925415410009
0.0055                    0.0115                   306.10432972146947
0.0055                    0.0125                   300.29276895727526
0.0055                    0.0135                   296.8725647153928
0.0055                    0.0145                   294.3331952407349
0.0055                    0.0155                   293.6071518957994
0.0055                    0.0165                   293.4431482120124
0.0055                    0.0175                   293.6993489678951
0.0055                    0.0185                   294.9151228320438
0.0055                    0.0195                   296.3125041432194
0.0055                    0.0205                   298.53759300216495
0.0055                    0.0215                   301.1674379081675
0.0055                    0.0225                   303.7972828141702
0.0055                    0.0235                   305.76073137289654
0.0055                    0.0245                   306.35305329550886
0.0055                    0.0255                   307.0245586483169
0.0055                    0.0265                   307.7494094959221
0.0055                    0.0275                   308.4794533115634
0.0055                    0.0285                   310.15155145554866
0.0055                    0.0295                   312.08536799280387
0.0055                    0.0305                   313.76393868088894
0.0055                    0.0315                   315.3117497056137
0.0065                    -0.0315                  391.1146979861202
0.0065                    -0.0305                  388.7236771530279
0.0065                    -0.0295                  386.1359802453377
0.0065                    -0.0285                  380.60880390580166
0.0065                    -0.0275                  375.09398344486726
0.0065                    -0.0265                  371.1576260113749
0.0065                    -0.0255                  367.2212685778825
0.0065                    -0.0245                  363.6940041120945
0.0065                    -0.0235                  362.04906108460636
0.0065                    -0.0225                  360.66629282308566
0.0065                    -0.0215                  359.2889117434048
0.0065                    -0.0205                  358.96235861964504
0.0065                    -0.0195                  358.6358054958853
0.0065                    -0.0185                  358.156219705556
0.0065                    -0.0175                  358.33006055136264
0.0065                    -0.0165                  358.50390139716933
0.0065                    -0.0155                  358.3833989802867
0.0065                    -0.0145                  358.6376130308116
0.0065                    -0.0135                  358.89182708133654
0.0065                    -0.0125                  358.82413311951785
0.0065                    -0.0115                  358.4916520926645
0.0065                    -0.0105                  358.15917106581105
0.0065                    -0.0095                  357.88623802184827
0.0065                    -0.0085                  356.9091801676544
0.0065                    -0.0075                  355.9321223134606
0.0065                    -0.0065                  355.3868497040021
0.0065                    -0.0055                  354.032732846776
0.0065                    -0.0045                  352.7091530555886
0.0065                    -0.0035                  351.731653769695
0.0065                    -0.0025                  350.0989103183226
0.0065                    -0.0015                  348.50120558308186
0.0065                    -5.0E-4                  346.989056317757
0.0065                    5.0E-4                   345.07167841967896
0.0065                    0.0015                   343.17253358434385
0.0065                    0.0025                   341.2415849745354
0.0065                    0.0035                   339.1242069180131
0.0065                    0.0045                   337.0164232099719
0.0065                    0.0055                   334.9759212847018
0.0065                    0.0065                   332.9782649008307
0.0065                    0.0075                   330.5654200724549
0.0065                    0.0085                   326.27578604654667
0.0065                    0.0095                   321.3110554300632
0.0065                    0.0105                   314.3985812887665
0.0065                    0.0115                   307.28029946337216