% Model:              SIMBench260525.mph
% Version:            COMSOL 6.2.0.339
% Date:               May 27 2026, 17:29
% Dimension:          2
% Nodes:              4096
% Expressions:        1
% Description:        温度
% Length unit:        m
% x                       y                        T (K)
% mirrored_by_python_y_to_minus_y, coord_match_decimals=12
0.0005 -0.0315 358.648026917
0.0005 -0.0305 356.638338446
0.0005 -0.0295 354.628649976
0.0005 -0.0285 351.597023841
0.0005 -0.0275 348.655740073
0.0005 -0.0265 345.760220369
0.0005 -0.0255 343.854474507
0.0005 -0.0245 342.026367106
0.0005 -0.0235 340.216281796
0.0005 -0.0225 338.560742064
0.0005 -0.0215 336.954165406
0.0005 -0.0205 334.937088786
0.0005 -0.0195 330.933150538
0.0005 -0.0185 326.528961213
0.0005 -0.0175 322.688898909
0.0005 -0.0165 315.484990598
0.0005 -0.0155 307.884587329
0.0005 -0.0145 302.355403804
0.0005 -0.0135 300.724448672
0.0005 -0.0125 299.09349354
0.0005 -0.0115 296.079792192
0.0005 -0.0105 294.725459098
0.0005 -0.0095 293.443369386
0.0005 -0.0085 293.103761702
0.0005 -0.0075 293.104378944
0.0005 -0.0065 293.468004563
0.0005 -0.0055 294.924943519
0.0005 -0.0045 296.477850673
0.0005 -0.0035 299.906414203
0.0005 -0.0025 301.193442748
0.0005 -0.0015 302.480471293
0.0005 -0.0005 308.461363762
0.0005 0.0005 317.81904682
0.0005 0.0015 327.176729878
0.0005 0.0025 332.444282376
0.0005 0.0035 337.069176963
0.0005 0.0045 341.69407155
0.0005 0.0055 344.358121739
0.0005 0.0065 345.580548851
0.0005 0.0075 346.802975963
0.0005 0.0085 347.975134453
0.0005 0.0095 348.820610006
0.0005 0.0105 349.666085559
0.0005 0.0115 350.315330733
0.0005 0.0125 351.144766326
0.0005 0.0135 351.97420192
0.0005 0.0145 352.490407649
0.0005 0.0155 353.50153835
0.0005 0.0165 354.512669052
0.0005 0.0175 355.179853231
0.0005 0.0185 356.430263446
0.0005 0.0195 357.680673662
0.0005 0.0205 358.741147227
0.0005 0.0215 360.576851514
0.0005 0.0225 362.412555802
0.0005 0.0235 364.546837188
0.0005 0.0245 367.719855501
0.0005 0.0255 370.892873814
0.0005 0.0265 374.772385906
0.0005 0.0275 378.492879513
0.0005 0.0285 382.213373119
0.0005 0.0295 385.484373021
0.0005 0.0305 387.244931811
0.0005 0.0315 388.989466214
0.0015 -0.0315 358.283287657
0.0015 -0.0305 356.596139698
0.0015 -0.0295 354.083889608
0.0015 -0.0285 350.788451252
0.0015 -0.0275 347.767431378
0.0015 -0.0265 345.384026128
0.0015 -0.0255 343.42411046
0.0015 -0.0245 341.551385199
0.0015 -0.0235 339.791804724
0.0015 -0.0225 338.064921894
0.0015 -0.0215 336.448948783
0.0015 -0.0205 333.778076133
0.0015 -0.0195 330.8070951
0.0015 -0.0185 326.509348137
0.0015 -0.0175 323.215315903
0.0015 -0.0165 318.649985094
0.0015 -0.0155 311.808610731
0.0015 -0.0145 307.103705088
0.0015 -0.0135 303.767991128
0.0015 -0.0125 301.122883487
0.0015 -0.0115 297.031003202
0.0015 -0.0105 294.726887084
0.0015 -0.0095 293.794018033
0.0015 -0.0085 293.05388664
0.0015 -0.0075 293.02149395
0.0015 -0.0065 293.834830975
0.0015 -0.0055 294.858708909
0.0015 -0.0045 297.350896979
0.0015 -0.0035 302.172769132
0.0015 -0.0025 305.1443995
0.0015 -0.0015 308.475420347
0.0015 -0.0005 315.009990477
0.0015 0.0005 323.087076908
0.0015 0.0015 330.287807887
0.0015 0.0025 334.466522422
0.0015 0.0035 338.889734401
0.0015 0.0045 342.612981219
0.0015 0.0055 345.089478645
0.0015 0.0065 346.881884967
0.0015 0.0075 348.116267003
0.0015 0.0085 349.367076007
0.0015 0.0095 350.398360438
0.0015 0.0105 351.113691095
0.0015 0.0115 351.652070782
0.0015 0.0125 352.346095959
0.0015 0.0135 352.941789219
0.0015 0.0145 353.222475766
0.0015 0.0155 353.894713144
0.0015 0.0165 354.646953159
0.0015 0.0175 355.0410089
0.0015 0.0185 355.896265681
0.0015 0.0195 356.957028565
0.0015 0.0205 357.739676954
0.0015 0.0215 359.077686376
0.0015 0.0225 360.966329079
0.0015 0.0235 362.943549536
0.0015 0.0245 365.480530534
0.0015 0.0255 369.06562666
0.0015 0.0265 373.182258837
0.0015 0.0275 377.119066809
0.0015 0.0285 380.85977542
0.0015 0.0295 384.618268746
0.0015 0.0305 386.883993354
0.0015 0.0315 388.187745796
0.0025 -0.0315 357.907664244
0.0025 -0.0305 356.258323956
0.0025 -0.0295 353.580070133
0.0025 -0.0285 350.162089086
0.0025 -0.0275 346.967747556
0.0025 -0.0265 345.028553918
0.0025 -0.0255 343.183588012
0.0025 -0.0245 341.329860404
0.0025 -0.0235 339.579815657
0.0025 -0.0225 337.8390736
0.0025 -0.0215 335.37609755
0.0025 -0.0205 332.59965353
0.0025 -0.0195 329.82320951
0.0025 -0.0185 326.660924662
0.0025 -0.0175 323.37726556
0.0025 -0.0165 320.093606458
0.0025 -0.0155 316.071322346
0.0025 -0.0145 311.366891857
0.0025 -0.0135 306.658354464
0.0025 -0.0125 302.435870782
0.0025 -0.0115 298.345902491
0.0025 -0.0105 294.815776923
0.0025 -0.0095 294.077606433
0.0025 -0.0085 293.339435943
0.0025 -0.0075 293.296321475
0.0025 -0.0065 294.127720034
0.0025 -0.0055 294.959118593
0.0025 -0.0045 298.759323404
0.0025 -0.0035 303.609170256
0.0025 -0.0025 308.459017108
0.0025 -0.0015 314.992864367
0.0025 -0.0005 321.516867455
0.0025 0.0005 327.956949031
0.0025 0.0015 332.049562704
0.0025 0.0025 336.225773691
0.0025 0.0035 340.417234468
0.0025 0.0045 343.081859868
0.0025 0.0055 345.557750956
0.0025 0.0065 348.100968554
0.0025 0.0075 349.643464208
0.0025 0.0085 350.899812377
0.0025 0.0095 352.188712514
0.0025 0.0105 352.889686167
0.0025 0.0115 353.441054348
0.0025 0.0125 353.971653415
0.0025 0.0135 354.219171824
0.0025 0.0145 354.488429523
0.0025 0.0155 354.720852993
0.0025 0.0165 354.965115557
0.0025 0.0175 355.338555176
0.0025 0.0185 355.699783331
0.0025 0.0195 356.306647847
0.0025 0.0205 357.071578287
0.0025 0.0215 357.836508726
0.0025 0.0225 359.637043477
0.0025 0.0235 361.654476804
0.0025 0.0245 363.652962112
0.0025 0.0255 367.174103856
0.0025 0.0265 371.251488014
0.0025 0.0275 375.417935281
0.0025 0.0285 379.383594343
0.0025 0.0295 383.10976821
0.0025 0.0305 385.642855319
0.0025 0.0315 387.386025379
0.0035 -0.0315 357.653853896
0.0035 -0.0305 355.898247572
0.0035 -0.0295 353.398884588
0.0035 -0.0285 350.179225488
0.0035 -0.0275 347.6337451
0.0035 -0.0265 345.799639336
0.0035 -0.0255 343.95467343
0.0035 -0.0245 342.078416812
0.0035 -0.0235 340.230712722
0.0035 -0.0225 338.483659648
0.0035 -0.0215 334.528804482
0.0035 -0.0205 331.326376458
0.0035 -0.0195 328.365345781
0.0035 -0.0185 324.875752903
0.0035 -0.0175 321.565910248
0.0035 -0.0165 318.861113247
0.0035 -0.0155 316.666046027
0.0035 -0.0145 311.961615538
0.0035 -0.0135 307.124249191
0.0035 -0.0125 302.411804399
0.0035 -0.0115 298.321836107
0.0035 -0.0105 295.578928851
0.0035 -0.0095 293.955788673
0.0035 -0.0085 293.280191826
0.0035 -0.0075 293.292074991
0.0035 -0.0065 293.928935524
0.0035 -0.0055 295.444621149
0.0035 -0.0045 298.33882744
0.0035 -0.0035 303.188674292
0.0035 -0.0025 309.137435155
0.0035 -0.0015 316.006821731
0.0035 -0.0005 322.530824818
0.0035 0.0005 327.032303548
0.0035 0.0015 330.529618517
0.0035 0.0025 334.705829504
0.0035 0.0035 339.183875262
0.0035 0.0045 343.231676071
0.0035 0.0055 345.707567159
0.0035 0.0065 349.424854708
0.0035 0.0075 352.974084598
0.0035 0.0085 354.230432767
0.0035 0.0095 356.026282563
0.0035 0.0105 357.710532688
0.0035 0.0115 358.261900869
0.0035 0.0125 358.495631599
0.0035 0.0135 358.61448268
0.0035 0.0145 358.883740379
0.0035 0.0155 358.430061965
0.0035 0.0165 357.895795073
0.0035 0.0175 358.269234692
0.0035 0.0185 357.907271679
0.0035 0.0195 357.532587312
0.0035 0.0205 358.297517751
0.0035 0.0215 358.594962262
0.0035 0.0225 359.017879977
0.0035 0.0235 361.035313304
0.0035 0.0245 362.811242363
0.0035 0.0255 364.566318776
0.0035 0.0265 368.643702933
0.0035 0.0275 373.090485618
0.0035 0.0285 377.631019219
0.0035 0.0295 381.473540546
0.0035 0.0305 383.57759126
0.0035 0.0315 385.755612343
0.0045 -0.0315 357.766336446
0.0045 -0.0305 355.778614573
0.0045 -0.0295 353.595890844
0.0045 -0.0285 350.985010624
0.0045 -0.0275 348.390994711
0.0045 -0.0265 346.557732478
0.0045 -0.0255 344.724470245
0.0045 -0.0245 342.826973221
0.0045 -0.0235 340.925237072
0.0045 -0.0225 337.942294063
0.0045 -0.0215 333.987438897
0.0045 -0.0205 330.053099386
0.0045 -0.0195 326.680599344
0.0045 -0.0185 323.191006466
0.0045 -0.0175 319.809136269
0.0045 -0.0165 317.803128085
0.0045 -0.0155 315.797119901
0.0045 -0.0145 312.508780819
0.0045 -0.0135 307.590143918
0.0045 -0.0125 302.671507017
0.0045 -0.0115 298.978403178
0.0045 -0.0105 296.490216304
0.0045 -0.0095 294.002029429
0.0045 -0.0085 293.577127842
0.0045 -0.0075 293.589011007
0.0045 -0.0065 293.730151013
0.0045 -0.0055 296.306533801
0.0045 -0.0045 299.146724415
0.0045 -0.0035 302.895872367
0.0045 -0.0025 309.862558532
0.0045 -0.0015 316.829244696
0.0045 -0.0005 322.865443479
0.0045 0.0005 326.107658065
0.0045 0.0015 329.349872652
0.0045 0.0025 333.303621574
0.0045 0.0035 337.950516055
0.0045 0.0045 342.597410536
0.0045 0.0055 346.350849979
0.0045 0.0065 350.748740862
0.0045 0.0075 355.146631746
0.0045 0.0085 357.78110742
0.0045 0.0095 359.863852612
0.0045 0.0105 361.946597805
0.0045 0.0115 362.950251764
0.0045 0.0125 363.019609783
0.0045 0.0135 363.088967803
0.0045 0.0145 362.978567666
0.0045 0.0155 362.139270936
0.0045 0.0165 361.299974206
0.0045 0.0175 360.909233915
0.0045 0.0185 360.114760028
0.0045 0.0195 359.32028614
0.0045 0.0205 359.364841274
0.0045 0.0215 359.320274107
0.0045 0.0225 359.275706941
0.0045 0.0235 360.347808517
0.0045 0.0245 361.969522614
0.0045 0.0255 363.59123671
0.0045 0.0265 366.264997626
0.0045 0.0275 370.822528059
0.0045 0.0285 375.380058491
0.0045 0.0295 379.725154939
0.0045 0.0305 382.084442171
0.0045 0.0315 384.449608346
0.0055 -0.0315 357.88370421
0.0055 -0.0305 356.232187625
0.0055 -0.0295 354.302150164
0.0055 -0.0285 351.753763635
0.0055 -0.0275 349.17991554
0.0055 -0.0265 347.460771137
0.0055 -0.0255 345.891005133
0.0055 -0.0245 344.073803861
0.0055 -0.0235 341.529301875
0.0055 -0.0225 336.237728247
0.0055 -0.0215 332.276559942
0.0055 -0.0205 328.023851744
0.0055 -0.0195 323.870306181
0.0055 -0.0185 320.393856831
0.0055 -0.0175 318.044999378
0.0055 -0.0165 316.15058619
0.0055 -0.0155 314.148546416
0.0055 -0.0145 312.437379767
0.0055 -0.0135 308.006646418
0.0055 -0.0125 303.093121893
0.0055 -0.0115 298.924981835
0.0055 -0.0105 296.450067096
0.0055 -0.0095 294.27797497
0.0055 -0.0085 293.561689064
0.0055 -0.0075 293.577537124
0.0055 -0.0065 294.027571509
0.0055 -0.0055 296.058783231
0.0055 -0.0045 298.911576803
0.0055 -0.0035 303.216996765
0.0055 -0.0025 309.76514802
0.0055 -0.0015 316.736433949
0.0055 -0.0005 320.749212519
0.0055 0.0005 323.98929158
0.0055 0.0015 327.242850314
0.0055 0.0025 330.617645691
0.0055 0.0035 335.257330549
0.0055 0.0045 339.90193047
0.0055 0.0055 346.395150641
0.0055 0.0065 350.784078291
0.0055 0.0075 355.173005941
0.0055 0.0085 361.041519484
0.0055 0.0095 363.148471064
0.0055 0.0105 365.226417569
0.0055 0.0115 367.762788907
0.0055 0.0125 367.902176335
0.0055 0.0135 367.973035586
0.0055 0.0145 367.605280993
0.0055 0.0155 366.777628225
0.0055 0.0165 365.928825054
0.0055 0.0175 364.160968487
0.0055 0.0185 363.3021776
0.0055 0.0195 362.474396127
0.0055 0.0205 360.803821696
0.0055 0.0215 360.768138404
0.0055 0.0225 360.732455112
0.0055 0.0235 360.179408673
0.0055 0.0245 361.753932782
0.0055 0.0255 363.470689747
0.0055 0.0265 365.415752729
0.0055 0.0275 369.202451439
0.0055 0.0285 373.786991318
0.0055 0.0295 378.510976265
0.0055 0.0305 380.825373875
0.0055 0.0315 383.143604349
0.0065 -0.0315 358.499617144
0.0065 -0.0305 356.857639238
0.0065 -0.0295 354.991950006
0.0065 -0.0285 352.496722577
0.0065 -0.0275 350.477920661
0.0065 -0.0265 348.715446963
0.0065 -0.0255 347.059928993
0.0065 -0.0245 345.34384445
0.0065 -0.0235 340.513851658
0.0065 -0.0225 335.020426114
0.0065 -0.0215 330.32151444
0.0065 -0.0205 325.691939091
0.0065 -0.0195 321.062363742
0.0065 -0.0185 317.765773265
0.0065 -0.0175 316.070993427
0.0065 -0.0165 314.363062374
0.0065 -0.0155 312.505600698
0.0065 -0.0145 310.860674146
0.0065 -0.0135 308.411113892
0.0065 -0.0125 303.869266715
0.0065 -0.0115 299.588553023
0.0065 -0.0105 296.149600081
0.0065 -0.0095 294.79975104
0.0065 -0.0085 293.761918278
0.0065 -0.0075 293.46572902
0.0065 -0.0065 294.49394547
0.0065 -0.0055 295.547278055
0.0065 -0.0045 298.634231016
0.0065 -0.0035 303.884296113
0.0065 -0.0025 309.342528326
0.0065 -0.0015 315.140509185
0.0065 -0.0005 318.228681877
0.0065 0.0005 321.361697013
0.0065 0.0015 324.674719746
0.0065 0.0025 328.073432419
0.0065 0.0035 331.914810839
0.0065 0.0045 337.550664671
0.0065 0.0055 344.346131189
0.0065 0.0065 350.269460333
0.0065 0.0075 355.478300514
0.0065 0.0085 361.554955726
0.0065 0.0095 366.215319026
0.0065 0.0105 368.555557992
0.0065 0.0115 371.147181466
0.0065 0.0125 372.916323951
0.0065 0.0135 372.733062617
0.0065 0.0145 372.313171593
0.0065 0.0155 371.767173654
0.0065 0.0165 370.391761386
0.0065 0.0175 368.490962732
0.0065 0.0185 366.948597573
0.0065 0.0195 365.663583152
0.0065 0.0205 363.725467134
0.0065 0.0215 362.595305943
0.0065 0.0225 362.268807361
0.0065 0.0235 361.582330367
0.0065 0.0245 361.65509183
0.0065 0.0255 363.468223919
0.0065 0.0265 365.442866969
0.0065 0.0275 367.583435987
0.0065 0.0285 372.368563087
0.0065 0.0295 377.153690186
0.0065 0.0305 379.611195201
0.0065 0.0315 382.020795119
0.0075 -0.0315 359.100083983
0.0075 -0.0305 357.463560187
0.0075 -0.0295 355.936286622
0.0075 -0.0285 354.003146167
0.0075 -0.0275 351.984344252
0.0075 -0.0265 350.199452268
0.0075 -0.0255 348.470098132
0.0075 -0.0245 344.560296789
0.0075 -0.0235 338.782423691
0.0075 -0.0225 333.173766291
0.0075 -0.0215 327.623907901
0.0075 -0.0205 322.962312046
0.0075 -0.0195 318.353679771
0.0075 -0.0185 316.165653127
0.0075 -0.0175 314.460289973
0.0075 -0.0165 312.75492682
0.0075 -0.0155 311.891496562
0.0075 -0.0145 310.232691604
0.0075 -0.0135 308.238826484
0.0075 -0.0125 304.214736517
0.0075 -0.0115 299.945732461
0.0075 -0.0105 296.294718715
0.0075 -0.0095 295.070336696
0.0075 -0.0085 294.042368043
0.0075 -0.0075 293.635264191
0.0075 -0.0065 294.697773898
0.0075 -0.0055 295.760283606
0.0075 -0.0045 298.735874438
0.0075 -0.0035 304.006726343
0.0075 -0.0025 309.277578248
0.0075 -0.0015 313.389031007
0.0075 -0.0005 316.47063088
0.0075 0.0005 319.552230752
0.0075 0.0015 322.083375299
0.0075 0.0025 325.482949702
0.0075 0.0035 328.9221763
0.0075 0.0045 334.965659768
0.0075 0.0055 341.749823072
0.0075 0.0065 348.718651691
0.0075 0.0075 355.524172653
0.0075 0.0085 361.584814851
0.0075 0.0095 367.70460509
0.0075 0.0105 371.395079851
0.0075 0.0115 373.96807302
0.0075 0.0125 376.452241324
0.0075 0.0135 376.789099282
0.0075 0.0145 376.358610698
0.0075 0.0155 375.867792633
0.0075 0.0165 374.352676695
0.0075 0.0175 372.495642422
0.0075 0.0185 370.614144963
0.0075 0.0195 368.530624793
0.0075 0.0205 366.598055168
0.0075 0.0215 364.638117372
0.0075 0.0225 363.660815979
0.0075 0.0235 362.975489886
0.0075 0.0245 362.290163792
0.0075 0.0255 363.286780638
0.0075 0.0265 365.102227642
0.0075 0.0275 367.207497115
0.0075 0.0285 371.540052753
0.0075 0.0295 375.872608392
0.0075 0.0305 378.581071375
0.0075 0.0315 381.08588466
0.0085 -0.0315 359.744615579
0.0085 -0.0305 358.392842752
0.0085 -0.0295 356.980387386
0.0085 -0.0285 355.230024729
0.0085 -0.0275 353.479662071
0.0085 -0.0265 350.819653005
0.0085 -0.0255 347.328086905
0.0085 -0.0245 343.043288571
0.0085 -0.0235 336.42644898
0.0085 -0.0225 330.603034425
0.0085 -0.0215 325.100106653
0.0085 -0.0205 319.906848175
0.0085 -0.0195 316.523528836
0.0085 -0.0185 314.906094983
0.0085 -0.0175 313.234957957
0.0085 -0.0165 312.388177077
0.0085 -0.0155 312.151167644
0.0085 -0.0145 310.737902823
0.0085 -0.0135 307.618691245
0.0085 -0.0125 304.006691424
0.0085 -0.0115 299.737687369
0.0085 -0.0105 297.086747873
0.0085 -0.0095 294.960571097
0.0085 -0.0085 294.026221294
0.0085 -0.0075 293.939953212
0.0085 -0.0065 294.424863945
0.0085 -0.0055 295.930229292
0.0085 -0.0045 298.534256232
0.0085 -0.0035 302.962237449
0.0085 -0.0025 308.139251322
0.0085 -0.0015 313.168217013
0.0085 -0.0005 316.509173852
0.0085 0.0005 318.487295142
0.0085 0.0015 319.438488678
0.0085 0.0025 322.776538816
0.0085 0.0035 326.649177467
0.0085 0.0045 331.039456095
0.0085 0.0055 337.823619399
0.0085 0.0065 345.992144228
0.0085 0.0075 354.514376349
0.0085 0.0085 360.575018548
0.0085 0.0095 366.980467991
0.0085 0.0105 373.174584961
0.0085 0.0115 375.74757813
0.0085 0.0125 377.844340559
0.0085 0.0135 379.731421725
0.0085 0.0145 379.300933141
0.0085 0.0155 378.52096075
0.0085 0.0165 377.614411561
0.0085 0.0175 375.757377288
0.0085 0.0185 373.440685602
0.0085 0.0195 371.071498048
0.0085 0.0205 369.138928422
0.0085 0.0215 366.97228769
0.0085 0.0225 365.009299121
0.0085 0.0235 364.323973028
0.0085 0.0245 363.259920923
0.0085 0.0255 363.632613221
0.0085 0.0265 364.646629345
0.0085 0.0275 366.892068651
0.0085 0.0285 371.145049634
0.0085 0.0295 375.33231695
0.0085 0.0305 377.87952936
0.0085 0.0315 380.16933284
0.0095 -0.0315 360.668415484
0.0095 -0.0305 359.425876786
0.0095 -0.0295 358.02448815
0.0095 -0.0285 356.243155023
0.0095 -0.0275 354.182671041
0.0095 -0.0265 350.170952947
0.0095 -0.0255 345.890683496
0.0095 -0.0245 341.526280353
0.0095 -0.0235 334.88598322
0.0095 -0.0225 327.741926019
0.0095 -0.0215 322.320963619
0.0095 -0.0205 317.010128165
0.0095 -0.0195 315.29559535
0.0095 -0.0185 313.670895884
0.0095 -0.0175 312.293677337
0.0095 -0.0165 312.054153175
0.0095 -0.0155 311.814629012
0.0095 -0.0145 310.691016447
0.0095 -0.0135 307.092346077
0.0095 -0.0125 303.493675707
0.0095 -0.0115 300.365699513
0.0095 -0.0105 297.853016691
0.0095 -0.0095 295.335648267
0.0095 -0.0085 294.447463968
0.0095 -0.0075 294.361195886
0.0095 -0.0065 294.274927804
0.0095 -0.0055 296.546396091
0.0095 -0.0045 299.150423032
0.0095 -0.0035 301.917748554
0.0095 -0.0025 306.96310333
0.0095 -0.0015 311.992069021
0.0095 -0.0005 316.417601886
0.0095 0.0005 317.368795421
0.0095 0.0015 318.319988957
0.0095 0.0025 320.211450721
0.0095 0.0035 324.376178635
0.0095 0.0045 328.54090655
0.0095 0.0055 334.484963978
0.0095 0.0065 343.265636765
0.0095 0.0075 352.046309552
0.0095 0.0085 359.728637258
0.0095 0.0095 366.256330892
0.0095 0.0105 372.784024527
0.0095 0.0115 377.275436356
0.0095 0.0125 379.236439794
0.0095 0.0135 381.177598447
0.0095 0.0145 381.99797692
0.0095 0.0155 381.136862351
0.0095 0.0165 380.275747783
0.0095 0.0175 378.756862596
0.0095 0.0185 376.26722624
0.0095 0.0195 373.777589884
0.0095 0.0205 371.643591225
0.0095 0.0215 369.306458008
0.0095 0.0225 366.951911425
0.0095 0.0235 365.326833003
0.0095 0.0245 364.198331477
0.0095 0.0255 364.410573561
0.0095 0.0265 365.379288574
0.0095 0.0275 366.813580484
0.0095 0.0285 370.600981095
0.0095 0.0295 374.788248412
0.0095 0.0305 377.336862462
0.0095 0.0315 379.709397151
0.0105 -0.0315 361.473833046
0.0105 -0.0305 360.255362872
0.0105 -0.0295 358.932092318
0.0105 -0.0285 356.790459706
0.0105 -0.0275 354.729975725
0.0105 -0.0265 350.737771999
0.0105 -0.0255 345.943661159
0.0105 -0.0245 339.377952337
0.0105 -0.0235 332.019630715
0.0105 -0.0225 324.643219975
0.0105 -0.0215 319.024530476
0.0105 -0.0205 316.205495252
0.0105 -0.0195 314.281487847
0.0105 -0.0185 312.656788382
0.0105 -0.0175 312.130854463
0.0105 -0.0165 311.89883146
0.0105 -0.0155 311.659307297
0.0105 -0.0145 310.293611708
0.0105 -0.0135 307.543694885
0.0105 -0.0125 303.941806339
0.0105 -0.0115 300.311342242
0.0105 -0.0105 297.62605773
0.0105 -0.0095 295.438763498
0.0105 -0.0085 294.344297251
0.0105 -0.0075 294.25995126
0.0105 -0.0065 294.517112676
0.0105 -0.0055 295.858951623
0.0105 -0.0045 298.503924423
0.0105 -0.0035 301.900348126
0.0105 -0.0025 306.38436826
0.0105 -0.0015 311.402421404
0.0105 -0.0005 315.153642059
0.0105 0.0005 316.978072177
0.0105 0.0015 317.940786966
0.0105 0.0025 318.694212456
0.0105 0.0035 321.806076641
0.0105 0.0045 325.972436193
0.0105 0.0055 330.982021216
0.0105 0.0065 339.133060053
0.0105 0.0075 347.893064005
0.0105 0.0085 357.989351802
0.0105 0.0095 365.067290255
0.0105 0.0105 371.556139035
0.0105 0.0115 377.134745508
0.0105 0.0125 379.681724658
0.0105 0.0135 381.52925539
0.0105 0.0145 382.473109394
0.0105 0.0155 381.978947555
0.0105 0.0165 381.092030643
0.0105 0.0175 379.979933832
0.0105 0.0185 377.839019711
0.0105 0.0195 375.698105589
0.0105 0.0205 373.428457892
0.0105 0.0215 370.917368426
0.0105 0.0225 368.334891136
0.0105 0.0235 366.740562358
0.0105 0.0245 365.357800814
0.0105 0.0255 364.97693137
0.0105 0.0265 365.750606653
0.0105 0.0275 367.179035172
0.0105 0.0285 370.857972482
0.0105 0.0295 374.500022977
0.0105 0.0305 376.942005861
0.0105 0.0315 379.350766362
0.0115 -0.0315 362.280148878
0.0115 -0.0305 361.064846526
0.0115 -0.0295 359.745344287
0.0115 -0.0285 357.520456659
0.0115 -0.0275 355.295569031
0.0115 -0.0265 350.259981306
0.0115 -0.0255 343.367337938
0.0115 -0.0245 336.361299076
0.0115 -0.0235 329.069111216
0.0115 -0.0225 321.77686747
0.0115 -0.0215 317.390334423
0.0115 -0.0205 315.400862338
0.0115 -0.0195 313.411390254
0.0115 -0.0185 312.194374478
0.0115 -0.0175 311.967868511
0.0115 -0.0165 311.741362543
0.0115 -0.0155 310.893341137
0.0115 -0.0145 309.42980861
0.0115 -0.0135 307.966276084
0.0115 -0.0125 304.374590183
0.0115 -0.0115 300.744126087
0.0115 -0.0105 297.399098769
0.0115 -0.0095 295.966994364
0.0115 -0.0085 294.72925809
0.0115 -0.0075 294.147804862
0.0115 -0.0065 294.874369053
0.0115 -0.0055 295.74540215
0.0115 -0.0045 298.122076626
0.0115 -0.0035 301.998673834
0.0115 -0.0025 305.892045475
0.0115 -0.0015 310.633873758
0.0115 -0.0005 313.527350372
0.0115 0.0005 316.420826985
0.0115 0.0015 317.595194626
0.0115 0.0025 318.267763638
0.0115 0.0035 319.194466011
0.0115 0.0045 323.80440285
0.0115 0.0055 328.929316785
0.0115 0.0065 334.822215503
0.0115 0.0075 344.374007334
0.0115 0.0085 354.527063089
0.0115 0.0095 363.846815852
0.0115 0.0105 369.754331998
0.0115 0.0115 375.332938472
0.0115 0.0125 380.126356908
0.0115 0.0135 381.309975749
0.0115 0.0145 382.253829753
0.0115 0.0155 382.817968302
0.0115 0.0165 381.839949497
0.0115 0.0175 380.861930691
0.0115 0.0185 378.830110586
0.0115 0.0195 376.430996787
0.0115 0.0205 374.185640615
0.0115 0.0215 372.055641196
0.0115 0.0225 369.717870847
0.0115 0.0235 368.073337439
0.0115 0.0245 366.249482355
0.0115 0.0255 365.771975714
0.0115 0.0265 366.24373806
0.0115 0.0275 367.544489861
0.0115 0.0285 371.099639058
0.0115 0.0295 374.634880776
0.0115 0.0305 376.945500944
0.0115 0.0315 379.068398111
0.0125 -0.0315 363.017717597
0.0125 -0.0305 361.875292119
0.0125 -0.0295 360.558596256
0.0125 -0.0285 358.150554617
0.0125 -0.0275 354.8015847
0.0125 -0.0265 348.122710064
0.0125 -0.0255 340.346452834
0.0125 -0.0245 333.344645814
0.0125 -0.0235 326.130461346
0.0125 -0.0225 319.550365878
0.0125 -0.0215 316.336938554
0.0125 -0.0205 314.35328828
0.0125 -0.0195 312.366584666
0.0125 -0.0185 311.973128008
0.0125 -0.0175 311.749433548
0.0125 -0.0165 311.5248485
0.0125 -0.0155 311.058850373
0.0125 -0.0145 309.613838394
0.0125 -0.0135 307.760211857
0.0125 -0.0125 304.49629643
0.0125 -0.0115 300.88037482
0.0125 -0.0105 297.766207868
0.0125 -0.0095 296.21012307
0.0125 -0.0085 295.03696373
0.0125 -0.0075 294.213102452
0.0125 -0.0065 294.953185329
0.0125 -0.0055 295.734982153
0.0125 -0.0045 297.683966861
0.0125 -0.0035 301.728238383
0.0125 -0.0025 305.772509904
0.0125 -0.0015 309.355993823
0.0125 -0.0005 312.429030585
0.0125 0.0005 315.502067347
0.0125 0.0015 317.06265029
0.0125 0.0025 317.736728629
0.0125 0.0035 318.4236124
0.0125 0.0045 321.401947809
0.0125 0.0055 326.531280314
0.0125 0.0065 331.835122421
0.0125 0.0075 340.364919627
0.0125 0.0085 350.497827635
0.0125 0.0095 360.694747426
0.0125 0.0105 368.100967956
0.0125 0.0115 373.689653281
0.0125 0.0125 378.71559985
0.0125 0.0135 380.914423853
0.0125 0.0145 381.839149124
0.0125 0.0155 382.22518716
0.0125 0.0165 381.692862423
0.0125 0.0175 380.731520224
0.0125 0.0185 379.445765708
0.0125 0.0195 377.154461383
0.0125 0.0205 374.942823339
0.0125 0.0215 372.785193934
0.0125 0.0225 370.464441063
0.0125 0.0235 368.86992798
0.0125 0.0245 367.079805243
0.0125 0.0255 366.64414335
0.0125 0.0265 367.076297101
0.0125 0.0275 368.095132961
0.0125 0.0285 371.266505316
0.0125 0.0295 374.769738576
0.0125 0.0305 377.075777093
0.0125 0.0315 379.169737256
0.0135 -0.0315 363.699482334
0.0135 -0.0305 362.560693168
0.0135 -0.0295 360.924118991
0.0135 -0.0285 357.098690885
0.0135 -0.0275 353.749720968
0.0135 -0.0265 347.065182888
0.0135 -0.0255 338.957327232
0.0135 -0.0245 330.848209276
0.0135 -0.0235 324.436755103
0.0135 -0.0225 317.856659636
0.0135 -0.0215 315.130575866
0.0135 -0.0205 313.248270645
0.0135 -0.0195 312.224587192
0.0135 -0.0185 311.814114887
0.0135 -0.0175 311.513846429
0.0135 -0.0165 311.279537037
0.0135 -0.0155 311.037801587
0.0135 -0.0145 310.178243845
0.0135 -0.0135 307.419838857
0.0135 -0.0125 304.376045299
0.0135 -0.0115 300.928517659
0.0135 -0.0105 298.443811658
0.0135 -0.0095 296.199502068
0.0135 -0.0085 295.119843295
0.0135 -0.0075 294.293091035
0.0135 -0.0065 294.837574435
0.0135 -0.0055 295.83930177
0.0135 -0.0045 297.360130973
0.0135 -0.0035 301.002507729
0.0135 -0.0025 305.213635173
0.0135 -0.0015 309.01115933
0.0135 -0.0005 312.345720613
0.0135 0.0005 315.073889209
0.0135 0.0015 316.227523652
0.0135 0.0025 317.102894489
0.0135 0.0035 318.043494186
0.0135 0.0045 319.182082856
0.0135 0.0055 323.76562934
0.0135 0.0065 329.678781291
0.0135 0.0075 335.835399832
0.0135 0.0085 345.927759988
0.0135 0.0095 356.272656489
0.0135 0.0105 366.560839749
0.0135 0.0115 372.149525074
0.0135 0.0125 376.293916608
0.0135 0.0135 380.437803403
0.0135 0.0145 381.197794831
0.0135 0.0155 381.271113717
0.0135 0.0165 381.334715388
0.0135 0.0175 380.191772423
0.0135 0.0185 378.906017907
0.0135 0.0195 377.62002441
0.0135 0.0205 375.526575728
0.0135 0.0215 373.201862488
0.0135 0.0225 370.899959292
0.0135 0.0235 369.305446209
0.0135 0.0245 367.717394289
0.0135 0.0255 367.425323998
0.0135 0.0265 367.812146949
0.0135 0.0275 368.845632167
0.0135 0.0285 372.017004521
0.0135 0.0295 375.120167536
0.0135 0.0305 377.15736078
0.0135 0.0315 379.247600396
0.0145 -0.0315 364.260624912
0.0145 -0.0305 362.838900234
0.0145 -0.0295 361.142353503
0.0145 -0.0285 357.012362016
0.0145 -0.0275 352.882370528
0.0145 -0.0265 345.434960798
0.0145 -0.0255 336.42798083
0.0145 -0.0245 328.306537999
0.0145 -0.0235 322.293531875
0.0145 -0.0225 316.162953393
0.0145 -0.0215 314.12242736
0.0145 -0.0205 312.629440338
0.0145 -0.0195 311.958479514
0.0145 -0.0185 311.608918726
0.0145 -0.0175 311.292405841
0.0145 -0.0165 311.094079362
0.0145 -0.0155 310.895752882
0.0145 -0.0145 310.256576158
0.0145 -0.0135 307.385942046
0.0145 -0.0125 304.324221951
0.0145 -0.0115 301.355037483
0.0145 -0.0105 298.88027106
0.0145 -0.0095 296.40983328
0.0145 -0.0085 295.314915641
0.0145 -0.0075 294.508076971
0.0145 -0.0065 294.835824819
0.0145 -0.0055 295.758424702
0.0145 -0.0045 297.374096576
0.0145 -0.0035 300.432845477
0.0145 -0.0025 304.698740476
0.0145 -0.0015 308.459215724
0.0145 -0.0005 312.018048546
0.0145 0.0005 314.238333804
0.0145 0.0015 315.408996105
0.0145 0.0025 316.497331926
0.0145 0.0035 317.623502067
0.0145 0.0045 318.769565027
0.0145 0.0055 321.292372946
0.0145 0.0065 327.447461264
0.0145 0.0075 333.602549581
0.0145 0.0085 341.421932261
0.0145 0.0095 351.782508606
0.0145 0.0105 362.14308495
0.0145 0.0115 369.789050187
0.0145 0.0125 373.952186979
0.0145 0.0135 378.115323772
0.0145 0.0145 380.299024278
0.0145 0.0155 380.38713683
0.0145 0.0165 380.417596113
0.0145 0.0175 379.641728712
0.0145 0.0185 378.354079299
0.0145 0.0195 377.085505427
0.0145 0.0205 375.394689903
0.0145 0.0215 373.455669994
0.0145 0.0225 371.335477521
0.0145 0.0235 369.802091947
0.0145 0.0245 368.297687562
0.0145 0.0255 368.024771474
0.0145 0.0265 368.497169094
0.0145 0.0275 369.584574181
0.0145 0.0285 372.61596761
0.0145 0.0295 375.647361039
0.0145 0.0305 377.621397575
0.0145 0.0315 379.440570057
0.0155 -0.0315 364.516696575
0.0155 -0.0305 363.064547168
0.0155 -0.0295 361.360588016
0.0155 -0.0285 356.873639666
0.0155 -0.0275 351.522029415
0.0155 -0.0265 343.247763903
0.0155 -0.0255 333.822939056
0.0155 -0.0245 325.764866721
0.0155 -0.0235 320.185420427
0.0155 -0.0225 315.156309742
0.0155 -0.0215 313.733965105
0.0155 -0.0205 312.351036084
0.0155 -0.0195 311.577478433
0.0155 -0.0185 311.326832989
0.0155 -0.0175 311.156649826
0.0155 -0.0165 311.14851102
0.0155 -0.0155 310.969160367
0.0155 -0.0145 309.769112058
0.0155 -0.0135 307.786009885
0.0155 -0.0125 304.719910517
0.0155 -0.0115 301.626107395
0.0155 -0.0105 298.878288264
0.0155 -0.0095 296.844383711
0.0155 -0.0085 295.283626135
0.0155 -0.0075 294.766120946
0.0155 -0.0065 294.904670529
0.0155 -0.0055 295.574311379
0.0155 -0.0045 297.388175642
0.0155 -0.0035 299.652265217
0.0155 -0.0025 303.986411649
0.0155 -0.0015 308.079630872
0.0155 -0.0005 311.630461461
0.0155 0.0005 314.206021706
0.0155 0.0015 315.429293025
0.0155 0.0025 316.158970033
0.0155 0.0035 316.885419731
0.0155 0.0045 318.031482691
0.0155 0.0055 319.575092847
0.0155 0.0065 324.332514871
0.0155 0.0075 330.520907796
0.0155 0.0085 337.111737316
0.0155 0.0095 346.790477096
0.0155 0.0105 357.01141755
0.0155 0.0115 366.708272247
0.0155 0.0125 371.849028568
0.0155 0.0135 375.613007843
0.0155 0.0145 378.655109458
0.0155 0.0155 379.571548259
0.0155 0.0165 379.298963254
0.0155 0.0175 378.742035325
0.0155 0.0185 377.810668406
0.0155 0.0195 376.556016351
0.0155 0.0205 374.982923963
0.0155 0.0215 373.102394385
0.0155 0.0225 371.478535787
0.0155 0.0235 370.286149766
0.0155 0.0245 368.877980835
0.0155 0.0255 368.613044444
0.0155 0.0265 369.219088785
0.0155 0.0275 370.40176408
0.0155 0.0285 373.206224482
0.0155 0.0295 376.174554543
0.0155 0.0305 378.145373885
0.0155 0.0315 379.89928208
0.0165 -0.0315 364.790272146
0.0165 -0.0305 363.338122738
0.0165 -0.0295 361.074544215
0.0165 -0.0285 355.072955712
0.0165 -0.0275 349.721345461
0.0165 -0.0265 341.425430617
0.0165 -0.0255 331.934846832
0.0165 -0.0245 324.119054807
0.0165 -0.0235 319.436946747
0.0165 -0.0225 314.407836062
0.0165 -0.0215 312.986278659
0.0165 -0.0205 311.840881623
0.0165 -0.0195 311.366483033
0.0165 -0.0185 311.179865699
0.0165 -0.0175 311.008637651
0.0165 -0.0165 311.000498844
0.0165 -0.0155 310.990625909
0.0165 -0.0145 309.386531759
0.0165 -0.0135 307.709890654