% Model:              SIMBench260525.mph
% Version:            COMSOL 6.2.0.339
% Date:               May 27 2026, 17:55
% Dimension:          2
% Nodes:              4096
% Expressions:        1
% Description:        温度
% Length unit:        m
% x                       y                        T (K)
5.0E-4                    -0.0315                  340.32277076980967
5.0E-4                    -0.0305                  339.01841186975935
5.0E-4                    -0.0295                  337.7069540290167
5.0E-4                    -0.0285                  334.9615694684261
5.0E-4                    -0.0275                  332.03998139916024
5.0E-4                    -0.0265                  328.9476276775561
5.0E-4                    -0.0255                  325.5194594684507
5.0E-4                    -0.0245                  322.4348987578202
5.0E-4                    -0.0235                  319.70344614398874
5.0E-4                    -0.0225                  317.7569205775467
5.0E-4                    -0.0215                  315.85082755151257
5.0E-4                    -0.0205                  314.49377903032797
5.0E-4                    -0.0195                  313.5437100810994
5.0E-4                    -0.0185                  312.5815866059527
5.0E-4                    -0.0175                  312.00488036936923
5.0E-4                    -0.0165                  311.44640050731147
5.0E-4                    -0.0155                  310.88792064525364
5.0E-4                    -0.0145                  310.5714742750773
5.0E-4                    -0.0135                  310.17148687346065
5.0E-4                    -0.0125                  309.7812743481169
5.0E-4                    -0.0115                  309.54793517641895
5.0E-4                    -0.0105                  309.2315853443399
5.0E-4                    -0.0095                  308.9521608410365
5.0E-4                    -0.0085                  308.73503495749105
5.0E-4                    -0.0075                  308.4730252028267
5.0E-4                    -0.0065                  308.2634474925377
5.0E-4                    -0.0055                  308.03381305649896
5.0E-4                    -0.0045                  307.7770028434409
5.0E-4                    -0.0035                  307.6124233643932
5.0E-4                    -0.0025                  307.3592719220784
5.0E-4                    -0.0015                  307.1003662707631
5.0E-4                    -5.0E-4                  306.98949179965024
5.0E-4                    5.0E-4                   306.7905595066254
5.0E-4                    0.0015                   306.59162721360053
5.0E-4                    0.0025                   306.52383005553145
5.0E-4                    0.0035                   306.34961435416284
5.0E-4                    0.0045                   306.18218906277264
5.0E-4                    0.0055                   305.9768753390289
5.0E-4                    0.0065                   305.6658419556258
5.0E-4                    0.0075                   305.33840876778714
5.0E-4                    0.0085                   304.4789873742545
5.0E-4                    0.0095                   303.37927665740784
5.0E-4                    0.0105                   302.34168755226415
5.0E-4                    0.0115                   300.46039779575403
5.0E-4                    0.0125                   298.4129362958867
5.0E-4                    0.0135                   296.7192960618128
5.0E-4                    0.0145                   296.42193384903936
5.0E-4                    0.0155                   296.1245716362659
5.0E-4                    0.0165                   294.7654112637429
5.0E-4                    0.0175                   294.01537165755235
5.0E-4                    0.0185                   293.31835317610063
5.0E-4                    0.0195                   293.14856462434756
5.0E-4                    0.0205                   293.14159203794446
5.0E-4                    0.0215                   293.1439118698521
5.0E-4                    0.0225                   293.14758849134483
5.0E-4                    0.0235                   293.15022127157897
5.0E-4                    0.0245                   293.1518072860492
5.0E-4                    0.0255                   293.1517530634153
5.0E-4                    0.0265                   293.15174747243907
5.0E-4                    0.0275                   293.151865698704
5.0E-4                    0.0285                   293.1518525319103
5.0E-4                    0.0295                   293.1529595003737
5.0E-4                    0.0305                   293.15550696297964
5.0E-4                    0.0315                   293.1580840058102
0.0015                    -0.0315                  339.10281469471727
0.0015                    -0.0305                  338.21808286448476
0.0015                    -0.0295                  336.32303614286224
0.0015                    -0.0285                  333.46789804231855
0.0015                    -0.0275                  330.5715072619159
0.0015                    -0.0265                  326.86043291803264
0.0015                    -0.0255                  322.9964011689176
0.0015                    -0.0245                  319.8897451891365
0.0015                    -0.0235                  317.8040668345466
0.0015                    -0.0225                  315.7677964931396
0.0015                    -0.0215                  313.9951694098087
0.0015                    -0.0205                  313.1612575804984
0.0015                    -0.0195                  312.2880907137447
0.0015                    -0.0185                  311.5029444898626
0.0015                    -0.0175                  311.12054235348427
0.0015                    -0.0165                  310.65294697177995
0.0015                    -0.0155                  310.254414632344
0.0015                    -0.0145                  310.02667054130734
0.0015                    -0.0135                  309.6849616894343
0.0015                    -0.0125                  309.436554398563
0.0015                    -0.0115                  309.267494018363
0.0015                    -0.0105                  308.9749099469063
0.0015                    -0.0095                  308.7993739950076
0.0015                    -0.0085                  308.65156738527304
0.0015                    -0.0075                  308.38955763060864
0.0015                    -0.0065                  308.2612155402869
0.0015                    -0.0055                  308.1086435609045
0.0015                    -0.0045                  307.8795780856322
0.0015                    -0.0035                  307.78554121458046
0.0015                    -0.0025                  307.63118166217083
0.0015                    -0.0015                  307.4521917211216
0.0015                    -5.0E-4                  307.425571015469
0.0015                    5.0E-4                   307.30561393804265
0.0015                    0.0015                   307.2131856915056
0.0015                    0.0025                   307.21956573084117
0.0015                    0.0035                   307.09640679521044
0.0015                    0.0045                   306.9722147909126
0.0015                    0.0055                   306.8700122240163
0.0015                    0.0065                   306.5813178433465
0.0015                    0.0075                   306.2175304968848
0.0015                    0.0085                   305.7958495154117
0.0015                    0.0095                   304.70401883563494
0.0015                    0.0105                   303.74222819000016
0.0015                    0.0115                   302.51259687733153
0.0015                    0.0125                   300.5877024417128
0.0015                    0.0135                   299.0447385153342
0.0015                    0.0145                   298.04935827643726
0.0015                    0.0155                   297.02089269384055
0.0015                    0.0165                   295.0980017756717
0.0015                    0.0175                   293.97187715886815
0.0015                    0.0185                   293.5052441262502
0.0015                    0.0195                   293.13316945103657
0.0015                    0.0205                   293.1281065887118
0.0015                    0.0215                   293.1406096504491
0.0015                    0.0225                   293.14966404829335
0.0015                    0.0235                   293.1519669059371
0.0015                    0.0245                   293.15384902712606
0.0015                    0.0255                   293.1544220917039
0.0015                    0.0265                   293.1546240381873
0.0015                    0.0275                   293.1549006379862
0.0015                    0.0285                   293.15528792673496
0.0015                    0.0295                   293.15750059040187
0.0015                    0.0305                   293.15994619416637
0.0015                    0.0315                   293.17063654815854
0.0025                    -0.0315                  337.8828586196248
0.0025                    -0.0305                  336.33165048853004
0.0025                    -0.0295                  334.14683035308565
0.0025                    -0.0285                  331.3914022092059
0.0025                    -0.0275                  328.073413541324
0.0025                    -0.0265                  324.3344358663343
0.0025                    -0.0255                  320.5964022629539
0.0025                    -0.0245                  317.9734403736181
0.0025                    -0.0235                  315.9159820062331
0.0025                    -0.0225                  313.8585236388481
0.0025                    -0.0215                  312.7647645122743
0.0025                    -0.0205                  311.93431904595195
0.0025                    -0.0195                  311.1038735796295
0.0025                    -0.0185                  310.7217237962931
0.0025                    -0.0175                  310.339522335259
0.0025                    -0.0165                  309.9837808580887
0.0025                    -0.0155                  309.76728705099407
0.0025                    -0.0145                  309.5382125540254
0.0025                    -0.0135                  309.34609360940544
0.0025                    -0.0125                  309.17564038581787
0.0025                    -0.0115                  309.0051871622303
0.0025                    -0.0105                  308.8700780912359
0.0025                    -0.0095                  308.7229074227388
0.0025                    -0.0085                  308.57573675424163
0.0025                    -0.0075                  308.46823287090336
0.0025                    -0.0065                  308.3392888796077
0.0025                    -0.0055                  308.21034488831197
0.0025                    -0.0045                  308.13778026621674
0.0025                    -0.0035                  308.04315969472736
0.0025                    -0.0025                  307.948539123238
0.0025                    -0.0015                  307.9395943901847
0.0025                    -5.0E-4                  307.91271778135206
0.0025                    5.0E-4                   307.8913647416416
0.0025                    0.0015                   307.8985333519016
0.0025                    0.0025                   307.904955989135
0.0025                    0.0035                   307.862472754204
0.0025                    0.0045                   307.7602540836525
0.0025                    0.0055                   307.65803541310106
0.0025                    0.0065                   307.41546746025523
0.0025                    0.0075                   307.0427115348332
0.0025                    0.0085                   306.6699556094112
0.0025                    0.0095                   305.9676925645473
0.0025                    0.0105                   305.0028355894829
0.0025                    0.0115                   304.0379786144185
0.0025                    0.0125                   302.68330509113775
0.0025                    0.0135                   301.1308521402657
0.0025                    0.0145                   299.501109445596
0.0025                    0.0155                   297.488747340269
0.0025                    0.0165                   295.56095131332233
0.0025                    0.0175                   294.0116551086947
0.0025                    0.0185                   293.63406738157266
0.0025                    0.0195                   293.2564796544507
0.0025                    0.0205                   293.12501498538415
0.0025                    0.0215                   293.13752059875435
0.0025                    0.0225                   293.1500022865398
0.0025                    0.0235                   293.15385519693245
0.0025                    0.0245                   293.1557422486658
0.0025                    0.0255                   293.1571797084783
0.0025                    0.0265                   293.15744764618
0.0025                    0.0275                   293.15771558388167
0.0025                    0.0285                   293.15948244249364
0.0025                    0.0295                   293.1616003185174
0.0025                    0.0305                   293.16995422368944
0.0025                    0.0315                   293.18318909050686
0.0035                    -0.0315                  335.5420099952857
0.0035                    -0.0305                  333.43706644259595
0.0035                    -0.0295                  331.49314569490303
0.0035                    -0.0285                  328.429205772327
0.0035                    -0.0275                  324.6262730945727
0.0035                    -0.0265                  320.8520861812298
0.0035                    -0.0255                  317.6121347397521
0.0035                    -0.0245                  316.03218979733424
0.0035                    -0.0235                  314.0834757392157
0.0035                    -0.0225                  312.55368205751347
0.0035                    -0.0215                  312.0323711727948
0.0035                    -0.0205                  311.22410534707393
0.0035                    -0.0195                  310.72108819720876
0.0035                    -0.0185                  310.4895888352917
0.0035                    -0.0175                  310.10738737425766
0.0035                    -0.0165                  309.9144663345159
0.0035                    -0.0155                  309.763399336399
0.0035                    -0.0145                  309.5343248394303
0.0035                    -0.0135                  309.44774566734134
0.0035                    -0.0125                  309.33135294297733
0.0035                    -0.0115                  309.1689766333596
0.0035                    -0.0105                  309.1491054560653
0.0035                    -0.0095                  309.047308156484
0.0035                    -0.0085                  308.9368005117348
0.0035                    -0.0075                  308.9588995934114
0.0035                    -0.0065                  308.8575085803941
0.0035                    -0.0055                  308.8036213363657
0.0035                    -0.0045                  308.8712254835683
0.0035                    -0.0035                  308.77792158409704
0.0035                    -0.0025                  308.78666650657794
0.0035                    -0.0015                  308.8597977943339
0.0035                    -5.0E-4                  308.83292118550116
0.0035                    5.0E-4                   308.83936014265333
0.0035                    0.0015                   308.85423853995405
0.0035                    0.0025                   308.8606611771874
0.0035                    0.0035                   308.68498161691815
0.0035                    0.0045                   308.5370089652746
0.0035                    0.0055                   308.4096870727658
0.0035                    0.0065                   307.97107032480824
0.0035                    0.0075                   307.57794701160213
0.0035                    0.0085                   307.13372805021777
0.0035                    0.0095                   306.4925247178817
0.0035                    0.0105                   305.5705542144955
0.0035                    0.0115                   304.58566257134487
0.0035                    0.0125                   303.5460591010066
0.0035                    0.0135                   301.99360615013455
0.0035                    0.0145                   299.7694173745019
0.0035                    0.0155                   297.4268106407627
0.0035                    0.0165                   295.499014613816
0.0035                    0.0175                   294.27972280175453
0.0035                    0.0185                   293.5484610924665
0.0035                    0.0195                   293.2562210664182
0.0035                    0.0205                   293.1321202934188
0.0035                    0.0215                   293.13518611996136
0.0035                    0.0225                   293.14743787898533
0.0035                    0.0235                   293.1567081407631
0.0035                    0.0245                   293.1585951924964
0.0035                    0.0255                   293.1595729279458
0.0035                    0.0265                   293.1601440965549
0.0035                    0.0275                   293.1611293657746
0.0035                    0.0285                   293.1632292371992
0.0035                    0.0295                   293.16534070342425
0.0035                    0.0305                   293.1763656651807
0.0035                    0.0315                   293.19163291321365
0.0045                    -0.0315                  333.6908539408693
0.0045                    -0.0305                  331.3103006240716
0.0045                    -0.0295                  328.87868636622284
0.0045                    -0.0285                  325.06356991951486
0.0045                    -0.0275                  321.2066136451524
0.0045                    -0.0265                  317.37619997006715
0.0045                    -0.0255                  315.48921375066243
0.0045                    -0.0245                  313.90926880824463
0.0045                    -0.0235                  312.25096947219834
0.0045                    -0.0225                  311.65426024310375
0.0045                    -0.0215                  311.13294935838513
0.0045                    -0.0205                  310.60116288736805
0.0045                    -0.0195                  310.38780698591836
0.0045                    -0.0185                  310.1744510844686
0.0045                    -0.0175                  309.96487043842404
0.0045                    -0.0165                  309.84515181094315
0.0045                    -0.0155                  309.7254331834622
0.0045                    -0.0145                  309.61195876795836
0.0045                    -0.0135                  309.54293053322164
0.0045                    -0.0125                  309.47390229848486
0.0045                    -0.0115                  309.417331936735
0.0045                    -0.0105                  309.3974607594407
0.0045                    -0.0095                  309.37170889022923
0.0045                    -0.0085                  309.3646112803944
0.0045                    -0.0075                  309.38671036207097
0.0045                    -0.0065                  309.37572828118056
0.0045                    -0.0055                  309.4411649381816
0.0045                    -0.0045                  309.50876908538424
0.0045                    -0.0035                  309.5417104910436
0.0045                    -0.0025                  309.6348810679658
0.0045                    -0.0015                  309.72805164488796
0.0045                    -5.0E-4                  309.7680864381956
0.0045                    5.0E-4                   309.7873555436651
0.0045                    0.0015                   309.80662464913456
0.0045                    0.0025                   309.7153150786222
0.0045                    0.0035                   309.5185481653058
0.0045                    0.0045                   309.32178125198936
0.0045                    0.0055                   308.984534032882
0.0045                    0.0065                   308.5459172849245
0.0045                    0.0075                   308.11318248837114
0.0045                    0.0085                   307.5070990396762
0.0045                    0.0095                   306.86589570734
0.0045                    0.0105                   306.13498035994667
0.0045                    0.0115                   305.1271337457423
0.0045                    0.0125                   304.1192871315379
0.0045                    0.0135                   302.5443597626652
0.0045                    0.0145                   300.0377253034078
0.0045                    0.0155                   297.53109084415036
0.0045                    0.0165                   295.8754895368876
0.0045                    0.0175                   294.6579560833491
0.0045                    0.0185                   293.4628548033603
0.0045                    0.0195                   293.3273412550427
0.0045                    0.0205                   293.20324048204327
0.0045                    0.0215                   293.1327383161673
0.0045                    0.0225                   293.14487347143086
0.0045                    0.0235                   293.15700862669445
0.0045                    0.0245                   293.16090859378954
0.0045                    0.0255                   293.16187844156474
0.0045                    0.0265                   293.16284054692983
0.0045                    0.0275                   293.16488248357075
0.0045                    0.0285                   293.16696811370315
0.0045                    0.0295                   293.1690342198554
0.0045                    0.0305                   293.1855966997356
0.0045                    0.0315                   293.20243074959416
0.0055                    -0.0315                  331.839697886453
0.0055                    -0.0305                  329.20335021308176
0.0055                    -0.0295                  326.5021522543673
0.0055                    -0.0285                  322.590977062994
0.0055                    -0.0275                  318.731861439632
0.0055                    -0.0265                  315.94860882472017
0.0055                    -0.0255                  314.3468243193936
0.0055                    -0.0245                  312.7135964022608
0.0055                    -0.0235                  311.744667959664
0.0055                    -0.0225                  311.3072267647724
0.0055                    -0.0215                  310.7934877552912
0.0055                    -0.0205                  310.5700841751567
0.0055                    -0.0195                  310.3845265797322
0.0055                    -0.0185                  310.17198865570447
0.0055                    -0.0175                  310.1552523840513
0.0055                    -0.0165                  310.0448449622096
0.0055                    -0.0155                  309.9545251297157
0.0055                    -0.0145                  310.0485351329685
0.0055                    -0.0135                  309.97679529141897
0.0055                    -0.0125                  309.9661854539497
0.0055                    -0.0115                  310.06137713888216
0.0055                    -0.0105                  310.03900553409636
0.0055                    -0.0095                  310.0575709137311
0.0055                    -0.0085                  310.10548047577083
0.0055                    -0.0075                  310.1262493929196
0.0055                    -0.0065                  310.12154097432995
0.0055                    -0.0055                  310.15509595805275
0.0055                    -0.0045                  310.2224662045941
0.0055                    -0.0035                  310.2024502749875
0.0055                    -0.0025                  310.2668598916099
0.0055                    -0.0015                  310.3604509660637
0.0055                    -5.0E-4                  310.27731892763705
0.0055                    5.0E-4                   310.2930014242047
0.0055                    0.0015                   310.28877652547874
0.0055                    0.0025                   310.07347372472543
0.0055                    0.0035                   309.8760213941066
0.0055                    0.0045                   309.6099325850756
0.0055                    0.0055                   309.1657928427147
0.0055                    0.0065                   308.7241610928754
0.0055                    0.0075                   308.1562113347839
0.0055                    0.0085                   307.4773483264355
0.0055                    0.0095                   306.83170610746816
0.0055                    0.0105                   306.0322466089574
0.0055                    0.0115                   305.06256056034914
0.0055                    0.0125                   304.04437806636304
0.0055                    0.0135                   302.54637555949876
0.0055                    0.0145                   300.1547704901295
0.0055                    0.0155                   297.72304837021335
0.0055                    0.0165                   295.6826117698745
0.0055                    0.0175                   294.4606818569954
0.0055                    0.0185                   293.6336767681557
0.0055                    0.0195                   293.3012904046382
0.0055                    0.0205                   293.1777443411427
0.0055                    0.0215                   293.13937538829595
0.0055                    0.0225                   293.14572918062277
0.0055                    0.0235                   293.15694138573053
0.0055                    0.0245                   293.16385611023287
0.0055                    0.0255                   293.1648549412589
0.0055                    0.0265                   293.1658341252598
0.0055                    0.0275                   293.1672476226865
0.0055                    0.0285                   293.16931372883874
0.0055                    0.0295                   293.17439595981125
0.0055                    0.0305                   293.1930876717748
0.0055                    0.0315                   293.21322858597466
0.0065                    -0.0315                  329.69022165657685
0.0065                    -0.0305                  326.87589882955564
0.0065                    -0.0295                  324.07455319179724
0.0065                    -0.0285                  320.16337800042396
0.0065                    -0.0275                  316.44444954961295
0.0065                    -0.0265                  314.86299315113774
0.0065                    -0.0255                  313.28153675266253
0.0065                    -0.0245                  311.75224814238936
0.0065                    -0.0235                  311.40151661118045
0.0065                    -0.0225                  311.05078507997143
0.0065                    -0.0215                  310.6858367697749
0.0065                    -0.0205                  310.56476929073006
0.0065                    -0.0195                  310.4351007970072
0.0065                    -0.0185                  310.3392265786922
0.0065                    -0.0175                  310.33150982174874
0.0065                    -0.0165                  310.2890761939768
0.0065                    -0.0155                  310.343220425798
0.0065                    -0.0145                  310.4543586221898
0.0065                    -0.0135                  310.4741374793435
0.0065                    -0.0125                  310.59491065499094
0.0065                    -0.0115                  310.7347110130407
0.0065                    -0.0105                  310.7696895245651
0.0065                    -0.0095                  310.8397294513588
0.0065                    -0.0085                  310.9097693781525
0.0065                    -0.0075                  310.9288335963609
0.0065                    -0.0065                  310.9071291217291
0.0065                    -0.0055                  310.887358142195
0.0065                    -0.0045                  310.91239189037384
0.0065                    -0.0035                  310.86499074710576
0.0065                    -0.0025                  310.8448548990107
0.0065                    -0.0015                  310.83704511508074
0.0065                    -5.0E-4                  310.7402409907064
0.0065                    5.0E-4                   310.68611717071485
0.0065                    0.0015                   310.53858116010986
0.0065                    0.0025                   310.3203508017926
0.0065                    0.0035                   310.1133407471417
0.0065                    0.0045                   309.69790845525426
0.0065                    0.0055                   309.25262196538324
0.0065                    0.0065                   308.79108863606757
0.0065                    0.0075                   308.0806367250606
0.0065                    0.0085                   307.3701848140535
0.0065                    0.0095                   306.65338571670725
0.0065                    0.0105                   305.78147794173776
0.0065                    0.0115                   304.8992929841181