% Model:              SIMBench260525.mph
% Version:            COMSOL 6.2.0.339
% Date:               May 27 2026, 18:19
% Dimension:          2
% Nodes:              4096
% Expressions:        1
% Description:        温度
% Length unit:        m
% x                       y                        T (K)
% mirrored_by_python_y_to_minus_y, coord_match_decimals=12
0.0005 -0.0315 304.863319005
0.0005 -0.0305 303.623107758
0.0005 -0.0295 302.401595607
0.0005 -0.0285 301.721499706
0.0005 -0.0275 301.052561828
0.0005 -0.0265 300.542081002
0.0005 -0.0255 300.088499002
0.0005 -0.0245 299.609796446
0.0005 -0.0235 299.107911868
0.0005 -0.0225 298.328091819
0.0005 -0.0215 297.562335109
0.0005 -0.0205 296.733999604
0.0005 -0.0195 295.732127246
0.0005 -0.0185 294.812927424
0.0005 -0.0175 294.508571963
0.0005 -0.0165 294.284013478
0.0005 -0.0155 293.770946578
0.0005 -0.0145 293.484079579
0.0005 -0.0135 293.215005211
0.0005 -0.0125 293.151675913
0.0005 -0.0115 293.14817395
0.0005 -0.0105 293.148196316
0.0005 -0.0095 293.149704856
0.0005 -0.0085 293.150821907
0.0005 -0.0075 293.150310194
0.0005 -0.0065 293.148507266
0.0005 -0.0055 293.146150501
0.0005 -0.0045 293.147112474
0.0005 -0.0035 293.154443511
0.0005 -0.0025 293.272183001
0.0005 -0.0015 293.747407779
0.0005 -0.0005 294.256333772
0.0005 0.0005 295.14194911
0.0005 0.0015 295.623833272
0.0005 0.0025 296.105717434
0.0005 0.0035 297.243105623
0.0005 0.0045 298.749611904
0.0005 0.0055 300.256118185
0.0005 0.0065 300.869992294
0.0005 0.0075 301.341640116
0.0005 0.0085 301.800704926
0.0005 0.0095 302.046988695
0.0005 0.0105 302.218823038
0.0005 0.0115 302.379585165
0.0005 0.0125 302.478280788
0.0005 0.0135 302.57100938
0.0005 0.0145 302.641402828
0.0005 0.0155 302.783986229
0.0005 0.0165 303.003290899
0.0005 0.0175 303.159831705
0.0005 0.0185 303.497059729
0.0005 0.0195 303.945476153
0.0005 0.0205 304.260900415
0.0005 0.0215 304.83252265
0.0005 0.0225 305.499011857
0.0005 0.0235 306.007640218
0.0005 0.0245 307.297700367
0.0005 0.0255 308.685942208
0.0005 0.0265 310.090739782
0.0005 0.0275 312.091627857
0.0005 0.0285 314.098842889
0.0005 0.0295 316.231304975
0.0005 0.0305 317.514075751
0.0005 0.0315 318.792870174
0.0015 -0.0315 304.500620609
0.0015 -0.0305 303.308161034
0.0015 -0.0295 302.30999976
0.0015 -0.0285 301.618952016
0.0015 -0.0275 300.955312584
0.0015 -0.0265 300.635933552
0.0015 -0.0255 300.285700507
0.0015 -0.0245 299.823407908
0.0015 -0.0235 299.398136737
0.0015 -0.0225 298.780046774
0.0015 -0.0215 298.089875139
0.0015 -0.0205 297.452430286
0.0015 -0.0195 296.485265149
0.0015 -0.0185 295.668557676
0.0015 -0.0175 295.008356363
0.0015 -0.0165 294.62366117
0.0015 -0.0155 293.918065618
0.0015 -0.0145 293.469155663
0.0015 -0.0135 293.286585476
0.0015 -0.0125 293.15247523
0.0015 -0.0115 293.143836058
0.0015 -0.0105 293.148113522
0.0015 -0.0095 293.151458512
0.0015 -0.0085 293.151942858
0.0015 -0.0075 293.151294881
0.0015 -0.0065 293.149923374
0.0015 -0.0055 293.144884462
0.0015 -0.0045 293.138358111
0.0015 -0.0035 293.146854979
0.0015 -0.0025 293.401257656
0.0015 -0.0015 293.724238901
0.0015 -0.0005 294.436736072
0.0015 0.0005 295.599093572
0.0015 0.0015 296.381084914
0.0015 0.0025 297.161233532
0.0015 0.0035 298.243946074
0.0015 0.0045 299.606954549
0.0015 0.0055 300.619430552
0.0015 0.0065 301.301436645
0.0015 0.0075 301.824889042
0.0015 0.0085 302.185431257
0.0015 0.0095 302.49569462
0.0015 0.0105 302.689525939
0.0015 0.0115 302.810197081
0.0015 0.0125 302.916227399
0.0015 0.0135 303.009927617
0.0015 0.0145 303.027801785
0.0015 0.0155 303.036298556
0.0015 0.0165 303.255603226
0.0015 0.0175 303.302963464
0.0015 0.0185 303.380639186
0.0015 0.0195 303.815078787
0.0015 0.0205 303.960995473
0.0015 0.0215 304.200909439
0.0015 0.0225 304.825979409
0.0015 0.0235 305.195356346
0.0015 0.0245 305.825932698
0.0015 0.0255 307.221058857
0.0015 0.0265 308.635445792
0.0015 0.0275 310.246425709
0.0015 0.0285 312.431337319
0.0015 0.0295 314.853685602
0.0015 0.0305 316.500165772
0.0015 0.0315 317.561456672
0.0025 -0.0315 304.137922213
0.0025 -0.0305 303.12165552
0.0025 -0.0295 302.276486339
0.0025 -0.0285 301.572939906
0.0025 -0.0275 301.120079042
0.0025 -0.0265 300.792180045
0.0025 -0.0255 300.464281047
0.0025 -0.0245 300.003789895
0.0025 -0.0235 299.581008392
0.0025 -0.0225 299.110703864
0.0025 -0.0215 298.468364035
0.0025 -0.0205 297.83390383
0.0025 -0.0195 297.168905531
0.0025 -0.0185 296.35739954
0.0025 -0.0175 295.545893548
0.0025 -0.0165 294.805597831
0.0025 -0.0155 294.100396459
0.0025 -0.0145 293.473486282
0.0025 -0.0135 293.339526024
0.0025 -0.0125 293.205565767
0.0025 -0.0115 293.143747718
0.0025 -0.0105 293.14802523
0.0025 -0.0095 293.152302741
0.0025 -0.0085 293.152934309
0.0025 -0.0075 293.152283134
0.0025 -0.0065 293.150028417
0.0025 -0.0055 293.143503957
0.0025 -0.0045 293.136979497
0.0025 -0.0035 293.245838433
0.0025 -0.0025 293.501186623
0.0025 -0.0015 293.756534813
0.0025 -0.0005 294.715042131
0.0025 0.0005 295.880157697
0.0025 0.0015 297.049801509
0.0025 0.0025 298.141358299
0.0025 0.0035 299.223916621
0.0025 0.0045 300.240712812
0.0025 0.0055 300.923209948
0.0025 0.0065 301.605707084
0.0025 0.0075 302.265698135
0.0025 0.0085 302.575993867
0.0025 0.0095 302.8862896
0.0025 0.0105 303.186088364
0.0025 0.0115 303.29271718
0.0025 0.0125 303.399345997
0.0025 0.0135 303.467850035
0.0025 0.0145 303.475404838
0.0025 0.0155 303.48295964
0.0025 0.0165 303.464466099
0.0025 0.0175 303.505042285
0.0025 0.0185 303.545618471
0.0025 0.0195 303.595101712
0.0025 0.0205 303.742334236
0.0025 0.0215 303.889566761
0.0025 0.0225 304.136784338
0.0025 0.0235 304.520248719
0.0025 0.0245 304.903713101
0.0025 0.0255 305.859112504
0.0025 0.0265 307.28677583
0.0025 0.0275 308.704698826
0.0025 0.0285 310.679477632
0.0025 0.0295 313.051667971
0.0025 0.0305 314.924332757
0.0025 0.0315 316.33004317
0.0035 -0.0315 304.171598855
0.0035 -0.0305 303.19316942
0.0035 -0.0295 302.288782378
0.0035 -0.0285 301.717288832
0.0035 -0.0275 301.408187873
0.0035 -0.0265 301.089195519
0.0035 -0.0255 300.656562534
0.0035 -0.0245 300.055926579
0.0035 -0.0235 299.619846484
0.0035 -0.0225 298.993385306
0.0035 -0.0215 298.296365997
0.0035 -0.0205 297.666700635
0.0035 -0.0195 297.120537869
0.0035 -0.0185 296.392172325
0.0035 -0.0175 295.582624167
0.0035 -0.0165 294.783654856
0.0035 -0.0155 294.078453483
0.0035 -0.0145 293.605914733
0.0035 -0.0135 293.315334424
0.0035 -0.0125 293.196295323
0.0035 -0.0115 293.153200928
0.0035 -0.0105 293.147913474
0.0035 -0.0095 293.151894818
0.0035 -0.0085 293.155010825
0.0035 -0.0075 293.154359651
0.0035 -0.0065 293.148413308
0.0035 -0.0055 293.141595486
0.0035 -0.0045 293.147993523
0.0035 -0.0035 293.23728832
0.0035 -0.0025 293.454438304
0.0035 -0.0015 293.920732644
0.0035 -0.0005 294.705032229
0.0035 0.0005 295.870147795
0.0035 0.0015 297.066734462
0.0035 0.0025 298.240730223
0.0035 0.0035 299.323288545
0.0035 0.0045 300.169021931
0.0035 0.0055 300.913078978
0.0035 0.0065 301.595576115
0.0035 0.0075 302.429696165
0.0035 0.0085 303.004187445
0.0035 0.0095 303.314483178
0.0035 0.0105 303.828249032
0.0035 0.0115 304.100567629
0.0035 0.0125 304.20321175
0.0035 0.0135 304.262437323
0.0035 0.0145 304.286937944
0.0035 0.0155 304.258376132
0.0035 0.0165 304.057258882
0.0035 0.0175 304.035224028
0.0035 0.0185 304.022733675
0.0035 0.0195 303.858092581
0.0035 0.0205 303.948911306
0.0035 0.0215 304.046820908
0.0035 0.0225 304.053249424
0.0035 0.0235 304.403195042
0.0035 0.0245 304.690348941
0.0035 0.0255 304.866707578
0.0035 0.0265 306.205954773
0.0035 0.0275 307.553780552
0.0035 0.0285 308.86640675
0.0035 0.0295 311.043776579
0.0035 0.0305 312.725496061
0.0035 0.0315 314.54136575
0.0045 -0.0315 304.319481081
0.0045 -0.0305 303.316358119
0.0045 -0.0295 302.32349897
0.0045 -0.0285 302.008293121
0.0045 -0.0275 301.697852887
0.0045 -0.0265 301.387412653
0.0045 -0.0255 300.806665265
0.0045 -0.0245 300.206029309
0.0045 -0.0235 299.599613505
0.0045 -0.0225 298.876066749
0.0045 -0.0215 298.152519992
0.0045 -0.0205 297.541612822
0.0045 -0.0195 296.995450056
0.0045 -0.0185 296.42694511
0.0045 -0.0175 295.619872099
0.0045 -0.0165 294.812907929
0.0045 -0.0155 294.162464465
0.0045 -0.0145 293.745261575
0.0045 -0.0135 293.328058684
0.0045 -0.0125 293.223610904
0.0045 -0.0115 293.180516509
0.0045 -0.0105 293.147755895
0.0045 -0.0095 293.151446396
0.0045 -0.0085 293.155136896
0.0045 -0.0075 293.153886835
0.0045 -0.0065 293.146821684
0.0045 -0.0055 293.139756533
0.0045 -0.0045 293.200336467
0.0045 -0.0035 293.289631265
0.0045 -0.0025 293.407689986
0.0045 -0.0015 294.157988569
0.0045 -0.0005 294.919715621
0.0045 0.0005 295.870444263
0.0045 0.0015 297.083667415
0.0045 0.0025 298.296890566
0.0045 0.0035 299.304196506
0.0045 0.0045 300.092919183
0.0045 0.0055 300.88164186
0.0045 0.0065 301.671669287
0.0045 0.0075 302.521274404
0.0045 0.0085 303.370879522
0.0045 0.0095 303.865940563
0.0045 0.0105 304.380823103
0.0045 0.0115 304.895705644
0.0045 0.0125 304.982206736
0.0045 0.0135 305.04143231
0.0045 0.0145 305.09847105
0.0045 0.0155 304.942750287
0.0045 0.0165 304.741633038
0.0045 0.0175 304.56540577
0.0045 0.0185 304.428569755
0.0045 0.0195 304.26392866
0.0045 0.0205 304.155488375
0.0045 0.0215 304.168416442
0.0045 0.0225 304.174844959
0.0045 0.0235 304.27634441
0.0045 0.0245 304.452703047
0.0045 0.0255 304.629061684
0.0045 0.0265 305.109632828
0.0045 0.0275 306.426894672
0.0045 0.0285 307.744156517
0.0045 0.0295 309.084746758
0.0045 0.0305 311.148404274
0.0045 0.0315 313.231463039
0.0055 -0.0315 304.467363307
0.0055 -0.0305 303.565786005
0.0055 -0.0295 302.722239906
0.0055 -0.0285 302.416450984
0.0055 -0.0275 302.10601075
0.0055 -0.0265 301.426212221
0.0055 -0.0255 300.600766472
0.0055 -0.0245 300.015743531
0.0055 -0.0235 299.173472793
0.0055 -0.0225 298.374841878
0.0055 -0.0215 297.67223828
0.0055 -0.0205 297.173804135
0.0055 -0.0195 296.628491713
0.0055 -0.0185 296.212172022
0.0055 -0.0175 295.651420169
0.0055 -0.0165 294.844501779
0.0055 -0.0155 294.142317868
0.0055 -0.0145 293.706601024
0.0055 -0.0135 293.359935859
0.0055 -0.0125 293.219406496
0.0055 -0.0115 293.176328968
0.0055 -0.0105 293.15413842
0.0055 -0.0095 293.152583356
0.0055 -0.0085 293.156266715
0.0055 -0.0075 293.153979349
0.0055 -0.0065 293.147055478
0.0055 -0.0055 293.148734185
0.0055 -0.0045 293.191965801
0.0055 -0.0035 293.281823116
0.0055 -0.0025 293.517154094
0.0055 -0.0015 294.107106643
0.0055 -0.0005 294.872137986
0.0055 0.0005 295.95224805
0.0055 0.0015 297.157243095
0.0055 0.0025 298.369912266
0.0055 0.0035 298.919152222
0.0055 0.0045 299.709773582
0.0055 0.0055 300.525417289
0.0055 0.0065 301.515466179
0.0055 0.0075 302.365022529
0.0055 0.0085 303.286408186
0.0055 0.0095 304.304145843
0.0055 0.0105 304.818706036
0.0055 0.0115 305.360257656
0.0055 0.0125 305.778466049
0.0055 0.0135 305.837797731
0.0055 0.0145 305.881846066
0.0055 0.0155 305.811740963
0.0055 0.0165 305.612049956
0.0055 0.0175 305.332003516
0.0055 0.0185 305.058348232
0.0055 0.0195 304.894608227
0.0055 0.0205 304.60843968
0.0055 0.0215 304.435503646
0.0055 0.0225 304.441455508
0.0055 0.0235 304.374206757
0.0055 0.0245 304.480258414
0.0055 0.0255 304.679850921
0.0055 0.0265 304.865332429
0.0055 0.0275 305.76118945
0.0055 0.0285 307.077267773
0.0055 0.0295 308.350382654
0.0055 0.0305 310.117516475
0.0055 0.0315 311.921560329
0.0065 -0.0315 304.78928026
0.0065 -0.0305 303.91544921
0.0065 -0.0295 303.126068193
0.0065 -0.0285 302.820471166
0.0065 -0.0275 302.411908124
0.0065 -0.0265 301.413043856
0.0065 -0.0255 300.414179587
0.0065 -0.0245 299.722880781
0.0065 -0.0235 298.776337183
0.0065 -0.0225 297.836498399
0.0065 -0.0215 297.250458219
0.0065 -0.0205 296.756516562
0.0065 -0.0195 296.252712027
0.0065 -0.0185 295.955852991
0.0065 -0.0175 295.658993956
0.0065 -0.0165 294.929829195
0.0065 -0.0155 294.236217956
0.0065 -0.0145 293.644256951
0.0065 -0.0135 293.430674337
0.0065 -0.0125 293.24900936
0.0065 -0.0115 293.174804032
0.0065 -0.0105 293.163933278
0.0065 -0.0095 293.153950739
0.0065 -0.0085 293.154289655
0.0065 -0.0075 293.151820428
0.0065 -0.0065 293.14758917
0.0065 -0.0055 293.167658052
0.0065 -0.0045 293.192710059
0.0065 -0.0035 293.293756165
0.0065 -0.0025 293.649667849
0.0065 -0.0015 294.005579533
0.0065 -0.0005 294.900686526
0.0065 0.0005 296.068152303
0.0065 0.0015 297.245451163
0.0065 0.0025 298.078142614
0.0065 0.0035 298.603391728
0.0065 0.0045 299.237969697
0.0065 0.0055 300.188500693
0.0065 0.0065 301.208295087
0.0065 0.0075 302.134638796
0.0065 0.0085 303.264933046
0.0065 0.0095 304.460012927
0.0065 0.0105 305.223048466
0.0065 0.0115 305.819172974
0.0065 0.0125 306.423612748
0.0065 0.0135 306.638811834
0.0065 0.0145 306.65920646
0.0065 0.0155 306.679601086
0.0065 0.0165 306.512742824
0.0065 0.0175 306.144911074
0.0065 0.0185 305.777079323
0.0065 0.0195 305.540651145
0.0065 0.0205 305.157644004
0.0065 0.0215 304.774636863
0.0065 0.0225 304.711311373
0.0065 0.0235 304.605707171
0.0065 0.0245 304.536790063
0.0065 0.0255 304.731543414
0.0065 0.0265 304.913131438
0.0065 0.0275 305.095484228
0.0065 0.0285 306.371697767
0.0065 0.0295 307.644812648
0.0065 0.0305 309.373212953
0.0065 0.0315 311.17721859
0.0075 -0.0315 305.080568535
0.0075 -0.0305 304.229961322
0.0075 -0.0295 303.466450268
0.0075 -0.0285 303.010554084
0.0075 -0.0275 302.519374216
0.0075 -0.0265 301.484965879
0.0075 -0.0255 300.450557542
0.0075 -0.0245 299.264395848
0.0075 -0.0235 298.296630172
0.0075 -0.0225 297.344848846
0.0075 -0.0215 296.885778832
0.0075 -0.0205 296.391785838
0.0075 -0.0195 296.165339237
0.0075 -0.0185 295.883495613
0.0075 -0.0175 295.570323975
0.0075 -0.0165 294.932760476
0.0075 -0.0155 294.240452601
0.0075 -0.0145 293.672328794
0.0075 -0.0135 293.446846373
0.0075 -0.0125 293.265116782
0.0075 -0.0115 293.178131108
0.0075 -0.0105 293.167286883
0.0075 -0.0095 293.157257298
0.0075 -0.0085 293.153953634
0.0075 -0.0075 293.151465096
0.0075 -0.0065 293.152214367
0.0075 -0.0055 293.173429206
0.0075 -0.0045 293.198724338
0.0075 -0.0035 293.329922584
0.0075 -0.0025 293.688236029
0.0075 -0.0015 294.046549474
0.0075 -0.0005 294.92314786
0.0075 0.0005 296.093183487
0.0075 0.0015 297.218973487
0.0075 0.0025 297.85988571
0.0075 0.0035 298.383299815
0.0075 0.0045 298.888332975
0.0075 0.0055 299.789322171
0.0075 0.0065 300.809735156
0.0075 0.0075 301.945279715
0.0075 0.0085 303.147764704
0.0075 0.0095 304.342149494
0.0075 0.0105 305.590486308
0.0075 0.0115 306.193843681
0.0075 0.0125 306.797201055
0.0075 0.0135 307.235813766
0.0075 0.0145 307.252807034
0.0075 0.0155 307.269800302
0.0075 0.0165 307.182586993
0.0075 0.0175 306.812101254
0.0075 0.0185 306.441615515
0.0075 0.0195 306.056344826
0.0075 0.0205 305.672722795
0.0075 0.0215 305.289100764
0.0075 0.0225 304.958866925
0.0075 0.0235 304.849457246
0.0075 0.0245 304.740047567
0.0075 0.0255 304.748481838
0.0075 0.0265 304.907241483
0.0075 0.0275 305.117831473
0.0075 0.0285 306.07874066
0.0075 0.0295 307.039649847
0.0075 0.0305 308.680453607
0.0075 0.0315 310.513360868
0.0085 -0.0315 305.380249927
0.0085 -0.0305 304.607311591
0.0085 -0.0295 303.855758259
0.0085 -0.0285 303.173491992
0.0085 -0.0275 302.617242489
0.0085 -0.0265 301.386530821
0.0085 -0.0255 299.82212595
0.0085 -0.0245 298.638545335
0.0085 -0.0235 297.725813428
0.0085 -0.0225 296.979765971
0.0085 -0.0215 296.548460623
0.0085 -0.0205 296.135594258
0.0085 -0.0195 296.07786072
0.0085 -0.0185 295.934148231
0.0085 -0.0175 295.455850255
0.0085 -0.0165 294.856844283
0.0085 -0.0155 294.175321674
0.0085 -0.0145 293.770388439
0.0085 -0.0135 293.419440844
0.0085 -0.0125 293.27765834
0.0085 -0.0115 293.203042396
0.0085 -0.0105 293.165447277
0.0085 -0.0095 293.159348491
0.0085 -0.0085 293.155291765
0.0085 -0.0075 293.152643192
0.0085 -0.0065 293.157841751
0.0085 -0.0055 293.167279388
0.0085 -0.0045 293.22588043
0.0085 -0.0035 293.37539118
0.0085 -0.0025 293.629594833
0.0085 -0.0015 294.186250905
0.0085 -0.0005 294.936948058
0.0085 0.0005 296.008638156
0.0085 0.0015 296.933526817
0.0085 0.0025 297.755598008
0.0085 0.0035 298.279649838
0.0085 0.0045 298.746933242
0.0085 0.0055 299.300131019
0.0085 0.0065 300.320770017
0.0085 0.0075 301.621225814
0.0085 0.0085 302.889961753
0.0085 0.0095 304.098020273
0.0085 0.0105 305.410409588
0.0085 0.0115 306.450634758
0.0085 0.0125 307.006204167
0.0085 0.0135 307.392939011
0.0085 0.0145 307.609230632
0.0085 0.0155 307.6000235
0.0085 0.0165 307.535194129
0.0085 0.0175 307.309090251
0.0085 0.0185 306.929847044
0.0085 0.0195 306.538525137
0.0085 0.0205 306.151855124
0.0085 0.0215 305.711188104
0.0085 0.0225 305.228902136
0.0085 0.0235 305.116523917
0.0085 0.0245 304.901721194
0.0085 0.0255 304.853568866
0.0085 0.0265 304.889173042
0.0085 0.0275 305.162953121
0.0085 0.0285 306.062719762
0.0085 0.0295 306.901143821
0.0085 0.0305 308.333570853
0.0085 0.0315 309.87555238
0.0095 -0.0315 305.752730247
0.0095 -0.0305 305.032541683
0.0095 -0.0295 304.278805918
0.0095 -0.0285 303.596539652
0.0095 -0.0275 302.335412557
0.0095 -0.0265 300.759384782
0.0095 -0.0255 299.189001603
0.0095 -0.0245 297.994855305
0.0095 -0.0235 297.20711633
0.0095 -0.0225 296.665572774
0.0095 -0.0215 296.225832852
0.0095 -0.0205 296.051239185
0.0095 -0.0195 295.993385603
0.0095 -0.0185 295.917396055
0.0095 -0.0175 295.379344483
0.0095 -0.0165 294.772829574
0.0095 -0.0155 294.239488075
0.0095 -0.0145 293.831342414
0.0095 -0.0135 293.423196753
0.0095 -0.0125 293.302234347
0.0095 -0.0115 293.227687416
0.0095 -0.0105 293.164990164
0.0095 -0.0095 293.160943945
0.0095 -0.0085 293.156897726
0.0095 -0.0075 293.15678422
0.0095 -0.0065 293.162091536
0.0095 -0.0055 293.167398852
0.0095 -0.0045 293.274945237
0.0095 -0.0035 293.425804021
0.0095 -0.0025 293.596458212
0.0095 -0.0015 294.317636013
0.0095 -0.0005 295.073284479
0.0095 0.0005 295.858065097
0.0095 0.0015 296.674838702
0.0095 0.0025 297.491612308
0.0095 0.0035 298.139660982
0.0095 0.0045 298.599555104
0.0095 0.0055 299.059449226
0.0095 0.0065 299.989004274
0.0095 0.0075 301.289352002
0.0095 0.0085 302.58969973
0.0095 0.0095 303.907371373
0.0095 0.0105 305.219057419
0.0095 0.0115 306.530743466
0.0095 0.0125 307.124397429
0.0095 0.0135 307.510318075
0.0095 0.0145 307.896238722
0.0095 0.0155 307.881029916
0.0095 0.0165 307.81216813
0.0095 0.0175 307.740161272
0.0095 0.0185 307.368224028
0.0095 0.0195 306.969793523
0.0095 0.0205 306.566338562
0.0095 0.0215 306.071127598
0.0095 0.0225 305.574805695
0.0095 0.0235 305.265530012
0.0095 0.0245 305.050727289
0.0095 0.0255 305.003943749
0.0095 0.0265 305.031248132
0.0095 0.0275 305.179965232
0.0095 0.0285 305.915794089
0.0095 0.0295 306.754218148
0.0095 0.0305 308.195133123
0.0095 0.0315 309.737518102
0.0105 -0.0315 306.061354819
0.0105 -0.0305 305.36312547
0.0105 -0.0295 304.425344603
0.0105 -0.0285 303.025936256
0.0105 -0.0275 301.759388985
0.0105 -0.0265 300.197373552
0.0105 -0.0255 298.592967477
0.0105 -0.0245 297.620288088
0.0105 -0.0235 297.005666789
0.0105 -0.0225 296.407867332
0.0105 -0.0215 296.075680481
0.0105 -0.0205 295.985927415
0.0105 -0.0195 295.913225395
0.0105 -0.0185 295.77525028
0.0105 -0.0175 295.40466628
0.0105 -0.0165 294.801786984
0.0105 -0.0155 294.210176146
0.0105 -0.0145 293.757972013
0.0105 -0.0135 293.471095456
0.0105 -0.0125 293.294482298
0.0105 -0.0115 293.219935367
0.0105 -0.0105 293.181588723
0.0105 -0.0095 293.160868297
0.0105 -0.0085 293.15741694
0.0105 -0.0075 293.157170582
0.0105 -0.0065 293.160998897
0.0105 -0.0055 293.188428492
0.0105 -0.0045 293.249295221
0.0105 -0.0035 293.400154006
0.0105 -0.0025 293.708201377
0.0105 -0.0015 294.208909102
0.0105 -0.0005 294.964557569
0.0105 0.0005 295.859670512
0.0105 0.0015 296.719654871
0.0105 0.0025 297.52120424
0.0105 0.0035 297.886517044
0.0105 0.0045 298.32605479
0.0105 0.0055 298.822354627
0.0105 0.0065 299.487931258
0.0105 0.0075 300.745050691
0.0105 0.0085 302.113416726
0.0105 0.0095 303.62371268
0.0105 0.0105 304.935398726
0.0105 0.0115 306.149306535
0.0105 0.0125 307.141673371
0.0105 0.0135 307.527594017
0.0105 0.0145 307.795482614
0.0105 0.0155 307.913289761
0.0105 0.0165 307.844427975
0.0105 0.0175 307.736638831
0.0105 0.0185 307.537230407
0.0105 0.0195 307.138799902
0.0105 0.0205 306.722240993
0.0105 0.0215 306.282207418
0.0105 0.0225 305.805702594
0.0105 0.0235 305.523489827
0.0105 0.0245 305.240529185
0.0105 0.0255 305.111164544
0.0105 0.0265 305.102480981
0.0105 0.0275 305.26967328
0.0105 0.0285 305.975419452
0.0105 0.0295 306.682679224
0.0105 0.0305 308.057414626
0.0105 0.0315 309.599980767
0.0115 -0.0315 306.344365598
0.0115 -0.0305 305.554826158
0.0115 -0.0295 304.604021421
0.0115 -0.0285 302.873554273
0.0115 -0.0275 301.183365413
0.0115 -0.0265 299.71985584
0.0115 -0.0255 298.263412139
0.0115 -0.0245 297.239022199
0.0115 -0.0235 296.697861174
0.0115 -0.0225 296.15670015
0.0115 -0.0215 296.024952586
0.0115 -0.0205 295.939884675
0.0115 -0.0195 295.820952651
0.0115 -0.0185 295.645274588
0.0115 -0.0175 295.429988077
0.0115 -0.0165 294.836898451
0.0115 -0.0155 294.245287612
0.0115 -0.0145 293.720372311
0.0115 -0.0135 293.528049936
0.0115 -0.0125 293.335727562
0.0115 -0.0115 293.231025637
0.0115 -0.0105 293.198330767
0.0115 -0.0095 293.165635897
0.0115 -0.0085 293.159556788
0.0115 -0.0075 293.159310431
0.0115 -0.0065 293.160196026
0.0115 -0.0055 293.217503221
0.0115 -0.0045 293.274810416
0.0115 -0.0035 293.435055531
0.0115 -0.0025 293.819944541
0.0115 -0.0015 294.204833551
0.0115 -0.0005 294.929199676
0.0115 0.0005 295.84507891
0.0115 0.0015 296.760958145
0.0115 0.0025 297.304888356
0.0115 0.0035 297.67020116
0.0115 0.0045 298.052554476
0.0115 0.0055 298.669510446
0.0115 0.0065 299.335087077
0.0115 0.0075 300.200749381
0.0115 0.0085 301.699243868
0.0115 0.0095 303.220119176
0.0115 0.0105 304.64330568
0.0115 0.0115 305.729205707
0.0115 0.0125 306.815105734
0.0115 0.0135 307.510877445
0.0115 0.0145 307.680235678
0.0115 0.0155 307.84959391
0.0115 0.0165 307.862109084
0.0115 0.0175 307.73311639
0.0115 0.0185 307.604123696
0.0115 0.0195 307.298050396
0.0115 0.0205 306.878143425
0.0115 0.0215 306.458236454
0.0115 0.0225 306.071264369
0.0115 0.0235 305.719764358
0.0115 0.0245 305.368264347
0.0115 0.0255 305.233263025
0.0115 0.0265 305.186285559
0.0115 0.0275 305.359381328
0.0115 0.0285 306.070469108
0.0115 0.0295 306.782146517
0.0115 0.0305 308.097773465
0.0115 0.0315 309.499719785
0.0125 -0.0315 306.576862112
0.0125 -0.0305 305.716481557
0.0125 -0.0295 304.782698238
0.0125 -0.0285 302.959811606
0.0125 -0.0275 300.771969317
0.0125 -0.0265 299.294157195
0.0125 -0.0255 297.937453779
0.0125 -0.0245 296.857756309
0.0125 -0.0235 296.417150917
0.0125 -0.0225 296.065928882
0.0125 -0.0215 295.973472375
0.0125 -0.0205 295.905334292
0.0125 -0.0195 295.778664722
0.0125 -0.0185 295.625030877
0.0125 -0.0175 295.414454854
0.0125 -0.0165 294.795548773
0.0125 -0.0155 294.196695124
0.0125 -0.0145 293.734032171
0.0125 -0.0135 293.493225224
0.0125 -0.0125 293.312170817
0.0125 -0.0115 293.229764574
0.0125 -0.0105 293.195163744
0.0125 -0.0095 293.168642536
0.0125 -0.0085 293.160043771
0.0125 -0.0075 293.159829434
0.0125 -0.0065 293.171528124
0.0125 -0.0055 293.213524943
0.0125 -0.0045 293.271399739
0.0125 -0.0035 293.429935941
0.0125 -0.0025 293.791536016
0.0125 -0.0015 294.198255407
0.0125 -0.0005 294.873341236
0.0125 0.0005 295.79075196
0.0125 0.0015 296.659676543
0.0125 0.0025 297.213933345
0.0125 0.0035 297.575973885
0.0125 0.0045 297.922527756
0.0125 0.0055 298.438589353
0.0125 0.0065 299.103982619
0.0125 0.0075 299.82569121
0.0125 0.0085 301.123542553
0.0125 0.0095 302.642025674
0.0125 0.0105 304.138210643
0.0125 0.0115 305.299304017
0.0125 0.0125 306.38504622
0.0125 0.0135 307.267761073
0.0125 0.0145 307.519855298
0.0125 0.0155 307.689380667
0.0125 0.0165 307.753145767
0.0125 0.0175 307.616199712
0.0125 0.0185 307.479253658
0.0125 0.0195 307.295386316
0.0125 0.0205 306.878996523
0.0125 0.0215 306.470965304
0.0125 0.0225 306.137986296
0.0125 0.0235 305.844008752
0.0125 0.0245 305.49599951
0.0125 0.0255 305.370235783
0.0125 0.0265 305.318255802
0.0125 0.0275 305.474792878
0.0125 0.0285 306.17054562
0.0125 0.0295 306.88161381
0.0125 0.0305 308.202482214
0.0125 0.0315 309.597819723
0.0135 -0.0315 306.865340847
0.0135 -0.0305 305.99842515
0.0135 -0.0295 304.756195153
0.0135 -0.0285 302.389393168
0.0135 -0.0275 300.201550878
0.0135 -0.0265 298.700865795
0.0135 -0.0255 297.42379954
0.0135 -0.0245 296.657783895
0.0135 -0.0235 296.33317597
0.0135 -0.0225 295.981953935
0.0135 -0.0215 295.901104819
0.0135 -0.0205 295.84723076
0.0135 -0.0195 295.801689048
0.0135 -0.0185 295.6875157
0.0135 -0.0175 295.388107309
0.0135 -0.0165 294.757573863
0.0135 -0.0155 294.213008617
0.0135 -0.0145 293.786782617
0.0135 -0.0135 293.453235083
0.0135 -0.0125 293.337763703
0.0135 -0.0115 293.255357459
0.0135 -0.0105 293.189888241
0.0135 -0.0095 293.175450748
0.0135 -0.0085 293.164056001
0.0135 -0.0075 293.163494151
0.0135 -0.0065 293.183645213
0.0135 -0.0055 293.204094962
0.0135 -0.0045 293.313677246
0.0135 -0.0035 293.490431515
0.0135 -0.0025 293.7297688
0.0135 -0.0015 294.295286084
0.0135 -0.0005 294.938893893
0.0135 0.0005 295.722115001
0.0135 0.0015 296.447028544
0.0135 0.0025 297.120320191
0.0135 0.0035 297.54220732
0.0135 0.0045 297.862766074
0.0135 0.0055 298.179429741
0.0135 0.0065 298.838284606
0.0135 0.0075 299.620784153
0.0135 0.0085 300.466675968
0.0135 0.0095 301.977327384
0.0135 0.0105 303.460523624
0.0135 0.0115 304.865137892
0.0135 0.0125 305.84680337
0.0135 0.0135 306.670901445
0.0135 0.0145 307.341221276
0.0135 0.0155 307.451866421
0.0135 0.0165 307.501807386
0.0135 0.0175 307.468396075
0.0135 0.0185 307.310498902
0.0135 0.0195 307.126287062
0.0135 0.0205 306.85144327
0.0135 0.0215 306.500777106
0.0135 0.0225 306.161474876
0.0135 0.0235 305.867497332
0.0135 0.0245 305.585295826
0.0135 0.0255 305.496219817
0.0135 0.0265 305.441235059
0.0135 0.0275 305.601458686
0.0135 0.0285 306.297211428
0.0135 0.0295 307.022591917
0.0135 0.0305 308.296087544
0.0135 0.0315 309.69053433
0.0145 -0.0315 307.062527952
0.0145 -0.0305 305.981897121
0.0145 -0.0295 304.713505669
0.0145 -0.0285 302.206470866
0.0145 -0.0275 299.699436064
0.0145 -0.0265 298.287635869
0.0145 -0.0255 297.232463581
0.0145 -0.0245 296.460539944
0.0145 -0.0235 296.175799687
0.0145 -0.0225 295.892003515
0.0145 -0.0215 295.848761961
0.0145 -0.0205 295.812087829
0.0145 -0.0195 295.767628032
0.0145 -0.0185 295.717602774
0.0145 -0.0175 295.367395956
0.0145 -0.0165 294.746685058
0.0145 -0.0155 294.217414444
0.0145 -0.0145 293.807554746
0.0145 -0.0135 293.441219081
0.0145 -0.0125 293.349833883
0.0145 -0.0115 293.264314101
0.0145 -0.0105 293.196237525
0.0145 -0.0095 293.17827928
0.0145 -0.0085 293.166954821
0.0145 -0.0075 293.166854763
0.0145 -0.0065 293.187347503
0.0145 -0.0055 293.209499635
0.0145 -0.0045 293.327501252
0.0145 -0.0035 293.504502647
0.0145 -0.0025 293.73317523
0.0145 -0.0015 294.302623023
0.0145 -0.0005 294.953156749
0.0145 0.0005 295.668997441
0.0145 0.0015 296.32843903
0.0145 0.0025 296.983510107
0.0145 0.0035 297.480193578
0.0145 0.0045 297.796668063
0.0145 0.0055 298.113142548
0.0145 0.0065 298.590434683
0.0145 0.0075 299.370434142
0.0145 0.0085 300.1504336
0.0145 0.0095 301.243428125
0.0145 0.0105 302.722003369
0.0145 0.0115 304.199556432
0.0145 0.0125 305.215655843
0.0145 0.0135 306.037768743
0.0145 0.0145 306.865870472
0.0145 0.0155 307.172384072
0.0145 0.0165 307.232566995
0.0145 0.0175 307.292749917
0.0145 0.0185 307.151117955
0.0145 0.0195 306.977364563
0.0145 0.0205 306.771218931
0.0145 0.0215 306.491549224
0.0145 0.0225 306.184963456
0.0145 0.0235 305.92385091
0.0145 0.0245 305.669566742
0.0145 0.0255 305.577073419
0.0145 0.0265 305.549074478
0.0145 0.0275 305.737071386
0.0145 0.0285 306.492106591
0.0145 0.0295 307.247141796
0.0145 0.0305 308.500479413
0.0145 0.0315 309.816467331
0.0155 -0.0315 307.109981225
0.0155 -0.0305 305.93590625
0.0155 -0.0295 304.670816185
0.0155 -0.0285 302.079408137
0.0155 -0.0275 299.326392582
0.0155 -0.0265 297.959501938
0.0155 -0.0255 297.041127621
0.0155 -0.0245 296.263295993
0.0155 -0.0235 296.035371236
0.0155 -0.0225 295.842743441
0.0155 -0.0215 295.807978687
0.0155 -0.0205 295.776944897
0.0155 -0.0195 295.734436101
0.0155 -0.0185 295.704669198
0.0155 -0.0175 295.38517411
0.0155 -0.0165 294.742833623
0.0155 -0.0155 294.212600876
0.0155 -0.0145 293.801081574
0.0155 -0.0135 293.468053979
0.0155 -0.0125 293.344101435
0.0155 -0.0115 293.256976962
0.0155 -0.0105 293.211446088
0.0155 -0.0095 293.178229767
0.0155 -0.0085 293.170621667
0.0155 -0.0075 293.1725863
0.0155 -0.0065 293.183689052
0.0155 -0.0055 293.234174222
0.0155 -0.0045 293.300853926
0.0155 -0.0035 293.472372202
0.0155 -0.0025 293.802486011
0.0155 -0.0015 294.205769101
0.0155 -0.0005 294.879695808
0.0155 0.0005 295.681654171
0.0155 0.0015 296.405732483
0.0155 0.0025 297.042827686
0.0155 0.0035 297.383548275
0.0155 0.0045 297.709444071
0.0155 0.0055 298.024788173
0.0155 0.0065 298.335519267
0.0155 0.0075 298.99256159
0.0155 0.0085 299.752171601
0.0155 0.0095 300.477063506
0.0155 0.0105 301.855764116
0.0155 0.0115 303.228873583
0.0155 0.0125 304.525909855
0.0155 0.0135 305.348022755
0.0155 0.0145 306.204881788
0.0155 0.0155 306.835674179
0.0155 0.0165 306.905521781
0.0155 0.0175 307.057054929
0.0155 0.0185 306.977784458
0.0155 0.0195 306.846051448
0.0155 0.0205 306.631666502
0.0155 0.0215 306.38809204
0.0155 0.0225 306.195143633
0.0155 0.0235 305.988319418
0.0155 0.0245 305.753837659
0.0155 0.0255 305.653630117
0.0155 0.0265 305.671093455
0.0155 0.0275 305.917572197
0.0155 0.0285 306.708020009
0.0155 0.0295 307.471691674
0.0155 0.0305 308.723508427
0.0155 0.0315 310.001606227
0.0165 -0.0315 307.211211199
0.0165 -0.0305 306.037136224
0.0165 -0.0295 304.432769373
0.0165 -0.0285 301.637279056
0.0165 -0.0275 298.8842635
0.0165 -0.0265 297.50880762
0.0165 -0.0255 296.659570236
0.0165 -0.0245 296.161974464
0.0165 -0.0235 295.986111163
0.0165 -0.0225 295.793483367
0.0165 -0.0215 295.760800541
0.0165 -0.0205 295.743503895
0.0165 -0.0195 295.726576937
0.0165 -0.0185 295.700646761
0.0165 -0.0175 295.413660326
0.0165 -0.0165 294.767344859
0.0165 -0.0155 294.184211594
0.0165 -0.0145 293.789355776
0.0165 -0.0135 293.494888877