% Model:              SIMBench260525.mph
% Version:            COMSOL 6.2.0.339
% Date:               May 27 2026, 18:04
% Dimension:          2
% Nodes:              4096
% Expressions:        1
% Description:        温度
% Length unit:        m
% x                       y                        T (K)
5.0E-4                    -0.0315                  383.8869920011122
5.0E-4                    -0.0305                  382.3109456361188
5.0E-4                    -0.0295                  380.72388876597614
5.0E-4                    -0.0285                  377.33200675740306
5.0E-4                    -0.0275                  373.4141844425853
5.0E-4                    -0.0265                  369.3486586342769
5.0E-4                    -0.0255                  364.4287291649664
5.0E-4                    -0.0245                  359.8443637818416
5.0E-4                    -0.0235                  355.40234088753544
5.0E-4                    -0.0225                  351.92407806082883
5.0E-4                    -0.0215                  348.76001881915516
5.0E-4                    -0.0205                  346.171059987415
5.0E-4                    -0.0195                  344.50927514873524
5.0E-4                    -0.0185                  342.8494685168319
5.0E-4                    -0.0175                  341.7053983340189
5.0E-4                    -0.0165                  340.6985120476894
5.0E-4                    -0.0155                  339.66126231258517
5.0E-4                    -0.0145                  339.0462012968435
5.0E-4                    -0.0135                  338.2416078442968
5.0E-4                    -0.0125                  337.4370143917501
5.0E-4                    -0.0115                  337.0222588410038
5.0E-4                    -0.0105                  336.3476217605943
5.0E-4                    -0.0095                  335.67298468018487
5.0E-4                    -0.0085                  335.31310283635935
5.0E-4                    -0.0075                  334.72457633467593
5.0E-4                    -0.0065                  334.1485930965353
5.0E-4                    -0.0055                  333.6088122596476
5.0E-4                    -0.0045                  332.97648353759575
5.0E-4                    -0.0035                  332.2581805414813
5.0E-4                    -0.0025                  331.3011426665814
5.0E-4                    -0.0015                  330.36987588156205
5.0E-4                    -5.0E-4                  329.06046383030076
5.0E-4                    5.0E-4                   326.11393194031837
5.0E-4                    0.0015                   322.8639097874691
5.0E-4                    0.0025                   319.74563453736096
5.0E-4                    0.0035                   312.99675142146947
5.0E-4                    0.0045                   305.8816555776575
5.0E-4                    0.0055                   300.30761577546093
5.0E-4                    0.0065                   299.2182639781973
5.0E-4                    0.0075                   298.12891218093364
5.0E-4                    0.0085                   295.6005829171047
5.0E-4                    0.0095                   294.45293933604944
5.0E-4                    0.0105                   293.3872912908996
5.0E-4                    0.0115                   293.14761135041186
5.0E-4                    0.0125                   293.1361215153794
5.0E-4                    0.0135                   293.14110038941686
5.0E-4                    0.0145                   293.14801008564217
5.0E-4                    0.0155                   293.1527151398084
5.0E-4                    0.0165                   293.1534542835907
5.0E-4                    0.0175                   293.1490080459845
5.0E-4                    0.0185                   293.1450856168537
5.0E-4                    0.0195                   293.17661667134547
5.0E-4                    0.0205                   293.23322409659175
5.0E-4                    0.0215                   293.6435649551367
5.0E-4                    0.0225                   295.1801901891349
5.0E-4                    0.0235                   296.7975583298307
5.0E-4                    0.0245                   300.52217560849346
5.0E-4                    0.0255                   305.3355179302263
5.0E-4                    0.0265                   309.76470888615523
5.0E-4                    0.0275                   312.2976337080231
5.0E-4                    0.0285                   314.9578658340393
5.0E-4                    0.0295                   317.122394663056
5.0E-4                    0.0305                   318.22176158434104
5.0E-4                    0.0315                   319.29929981552425
0.0015                    -0.0315                  382.8864861087186
0.0015                    -0.0305                  381.8511929057384
0.0015                    -0.0295                  379.59945565394355
0.0015                    -0.0285                  376.1094890859419
0.0015                    -0.0275                  372.3745113796592
0.0015                    -0.0265                  367.45102013309724
0.0015                    -0.0255                  362.2205614319759
0.0015                    -0.0245                  357.5524942445744
0.0015                    -0.0235                  353.47641811484243
0.0015                    -0.0225                  349.49138720848333
0.0015                    -0.0215                  346.3433697520889
0.0015                    -0.0205                  344.6749125243714
0.0015                    -0.0195                  343.0079354727365
0.0015                    -0.0185                  341.49941584530677
0.0015                    -0.0175                  340.81675485336166
0.0015                    -0.0165                  340.02256206879235
0.0015                    -0.0155                  339.18354079600795
0.0015                    -0.0145                  338.81268722456326
0.0015                    -0.0135                  338.24385224515527
0.0015                    -0.0125                  337.69746455878317
0.0015                    -0.0115                  337.4872008386611
0.0015                    -0.0105                  336.99958559291633
0.0015                    -0.0095                  336.5911999644731
0.0015                    -0.0085                  336.38442716239445
0.0015                    -0.0075                  335.89533703894665
0.0015                    -0.0065                  335.4025486618797
0.0015                    -0.0055                  334.9496082728359
0.0015                    -0.0045                  334.33865415912214
0.0015                    -0.0035                  333.3958427256647
0.0015                    -0.0025                  332.397117122655
0.0015                    -0.0015                  331.46585033763563
0.0015                    -5.0E-4                  329.5439921244025
0.0015                    5.0E-4                   327.39184715647485
0.0015                    0.0015                   324.17399570111587
0.0015                    0.0025                   321.1781225557797
0.0015                    0.0035                   316.9270460522187
0.0015                    0.0045                   310.3534473396755
0.0015                    0.0055                   305.23015075070987
0.0015                    0.0065                   301.92656780178544
0.0015                    0.0075                   299.8034615594514
0.0015                    0.0085                   296.2570309006428
0.0015                    0.0095                   294.3415800102987
0.0015                    0.0105                   293.64795415113605
0.0015                    0.0115                   293.12440391260924
0.0015                    0.0125                   293.11292185851886
0.0015                    0.0135                   293.137113449407
0.0015                    0.0145                   293.15492794199116
0.0015                    0.0155                   293.1583263684688
0.0015                    0.0165                   293.15967521353116
0.0015                    0.0175                   293.157145373338
0.0015                    0.0185                   293.1555616000651
0.0015                    0.0195                   293.15600009509154
0.0015                    0.0205                   293.2832099030778
0.0015                    0.0215                   294.0827657661911
0.0015                    0.0225                   295.1853010942667
0.0015                    0.0235                   297.870068894731
0.0015                    0.0245                   301.8130875755179
0.0015                    0.0255                   306.35915293025494
0.0015                    0.0265                   309.2087237100467
0.0015                    0.0275                   311.58811369819097
0.0015                    0.0285                   314.06343299508967
0.0015                    0.0295                   315.7414180282337
0.0015                    0.0305                   317.08011432754415
0.0015                    0.0315                   318.0838887367833
0.0025                    -0.0315                  381.885980216325
0.0025                    -0.0305                  380.3398751477151
0.0025                    -0.0295                  377.9231002947641
0.0025                    -0.0285                  374.4844635777662
0.0025                    -0.0275                  370.142671106883
0.0025                    -0.0265                  365.00756336343056
0.0025                    -0.0255                  359.89040315222275
0.0025                    -0.0245                  355.39237447904367
0.0025                    -0.0235                  351.39399779908643
0.0025                    -0.0225                  347.3956211191294
0.0025                    -0.0215                  344.97499179511215
0.0025                    -0.0205                  343.30960628422963
0.0025                    -0.0195                  341.6442207733471
0.0025                    -0.0185                  340.87083655153526
0.0025                    -0.0175                  340.187643052413
0.0025                    -0.0165                  339.5044495532907
0.0025                    -0.0155                  339.2933001467275
0.0025                    -0.0145                  338.9176919099972
0.0025                    -0.0135                  338.61196393482675
0.0025                    -0.0125                  338.54270683547577
0.0025                    -0.0115                  338.3244085820468
0.0025                    -0.0105                  338.25177576578886
0.0025                    -0.0095                  338.0405491618176
0.0025                    -0.0085                  337.82601803658105
0.0025                    -0.0075                  337.5401966867366
0.0025                    -0.0065                  337.0826638231948
0.0025                    -0.0055                  336.625130959653
0.0025                    -0.0045                  335.744005786573
0.0025                    -0.0035                  334.7428949963951
0.0025                    -0.0025                  333.7417842062172
0.0025                    -0.0015                  331.8942297651844
0.0025                    -5.0E-4                  329.9556587085957
0.0025                    5.0E-4                   328.0170876520071
0.0025                    0.0015                   325.2053417844594
0.0025                    0.0025                   322.20495034410226
0.0025                    0.0035                   319.2045589037451
0.0025                    0.0045                   314.7899185676482
0.0025                    0.0055                   309.66139317083935
0.0025                    0.0065                   304.530514848502
0.0025                    0.0075                   300.7358013020514
0.0025                    0.0085                   297.18148763231363
0.0025                    0.0095                   294.36313274054805
0.0025                    0.0105                   293.8380627248106
0.0025                    0.0115                   293.312992709073
0.0025                    0.0125                   293.10959634878066
0.0025                    0.0135                   293.1338013748708
0.0025                    0.0145                   293.1580064009609
0.0025                    0.0155                   293.16393643855264
0.0025                    0.0165                   293.165299217682
0.0025                    0.0175                   293.1645052992652
0.0025                    0.0185                   293.1638916448471
0.0025                    0.0195                   293.16327799042904
0.0025                    0.0205                   293.6151786891393
0.0025                    0.0215                   294.41189933930605
0.0025                    0.0225                   295.36501230998283
0.0025                    0.0235                   299.06527566266675
0.0025                    0.0245                   302.9927233378195
0.0025                    0.0255                   306.40649431308213
0.0025                    0.0265                   308.80678768105287
0.0025                    0.0275                   311.2070810490236
0.0025                    0.0285                   312.73008778741996
0.0025                    0.0295                   314.42113305460066
0.0025                    0.0305                   315.78627513387556
0.0025                    0.0315                   316.8684776580425
0.0035                    -0.0315                  379.926462845181
0.0035                    -0.0305                  378.0105984159312
0.0035                    -0.0295                  376.00129902768725
0.0035                    -0.0285                  372.0748069659273
0.0035                    -0.0275                  366.7254325255839
0.0035                    -0.0265                  361.4606257149658
0.0035                    -0.0255                  356.5483737852331
0.0035                    -0.0245                  352.6243562573219
0.0035                    -0.0235                  348.6504661612495
0.0035                    -0.0225                  345.36190030665983
0.0035                    -0.0215                  344.1789462420637
0.0035                    -0.0205                  342.59831119241704
0.0035                    -0.0195                  341.5697932977035
0.0035                    -0.0185                  341.4815196234323
0.0035                    -0.0175                  340.813990931435
0.0035                    -0.0165                  340.7985896801183
0.0035                    -0.0155                  341.2109865784332
0.0035                    -0.0145                  340.83537834170284
0.0035                    -0.0135                  341.2813208506557
0.0035                    -0.0125                  341.833242603092
0.0035                    -0.0115                  341.61494434966306
0.0035                    -0.0105                  342.0276596655837
0.0035                    -0.0095                  342.27929505870895
0.0035                    -0.0085                  342.0647639334724
0.0035                    -0.0075                  341.6556897868558
0.0035                    -0.0065                  341.2149499650355
0.0035                    -0.0055                  340.6505872846478
0.0035                    -0.0045                  338.6538798808524
0.0035                    -0.0035                  337.32826097966426
0.0035                    -0.0025                  335.7981597393304
0.0035                    -0.0015                  332.1940930727916
0.0035                    -5.0E-4                  329.9433818362508
0.0035                    5.0E-4                   327.4624115194683
0.0035                    0.0015                   323.936675733097
0.0035                    0.0025                   320.9101534519563
0.0035                    0.0035                   318.10389558952437
0.0035                    0.0045                   315.2626212011264
0.0035                    0.0055                   310.1340958043176
0.0035                    0.0065                   304.96121282618793
0.0035                    0.0075                   300.24456759707726
0.0035                    0.0085                   296.69025392733954
0.0035                    0.0095                   294.76198554442925
0.0035                    0.0105                   293.6863821600239
0.0035                    0.0115                   293.2534552634188
0.0035                    0.0125                   293.1286773453664
0.0035                    0.0135                   293.1335210841526
0.0035                    0.0145                   293.155798641782
0.0035                    0.0155                   293.1724629588646
0.0035                    0.0165                   293.173825737994
0.0035                    0.0175                   293.16716886859143
0.0035                    0.0185                   293.1636944702646
0.0035                    0.0195                   293.25988726979233
0.0035                    0.0205                   293.5693022635135
0.0035                    0.0215                   294.3396881849651
0.0035                    0.0225                   296.3295047770087
0.0035                    0.0235                   299.2820284904544
0.0035                    0.0245                   303.138862958645
0.0035                    0.0255                   306.12619202619703
0.0035                    0.0265                   308.751905491334
0.0035                    0.0275                   310.54120663607966
0.0035                    0.0285                   311.65194503656824
0.0035                    0.0295                   313.1487154945617
0.0035                    0.0305                   314.3775846627162
0.0035                    0.0315                   315.58128395776777
0.0045                    -0.0315                  378.18554669075945
0.0045                    -0.0305                  376.10726083994774
0.0045                    -0.0295                  373.99514017392977
0.0045                    -0.0285                  368.7239726894729
0.0045                    -0.0275                  363.34508955084493
0.0045                    -0.0265                  357.966206412217
0.0045                    -0.0255                  353.76072494753976
0.0045                    -0.0245                  349.83670741962857
0.0045                    -0.0235                  345.90693452341253
0.0045                    -0.0225                  344.35468172276325
0.0045                    -0.0215                  343.1717276581671
0.0045                    -0.0205                  341.9288538442007
0.0045                    -0.0195                  341.84058016992947
0.0045                    -0.0185                  341.7523064956583
0.0045                    -0.0175                  341.6681585541386
0.0045                    -0.0165                  342.1821558795681
0.0045                    -0.0155                  342.69615320499764
0.0045                    -0.0145                  343.1330631991811
0.0045                    -0.0135                  343.95067776648455
0.0045                    -0.0125                  344.76829233378805
0.0045                    -0.0115                  345.2466629072813
0.0045                    -0.0105                  345.8035435653785
0.0045                    -0.0095                  346.36042422347583
0.0045                    -0.0085                  346.18763079350236
0.0045                    -0.0075                  345.7662224886393
0.0045                    -0.0065                  345.34481418377624
0.0045                    -0.0055                  343.8368035015822
0.0045                    -0.0045                  341.8400960977867
0.0045                    -0.0035                  339.9136269629334
0.0045                    -0.0025                  336.79358664286457
0.0045                    -0.0015                  333.18951997632576
0.0045                    -5.0E-4                  329.93110496390597
0.0045                    5.0E-4                   326.4865369123992
0.0045                    0.0015                   322.96080112602783
0.0045                    0.0025                   319.6539005974569
0.0045                    0.0035                   317.05029726668226
0.0045                    0.0045                   314.4466939359076
0.0045                    0.0055                   310.58904869632545
0.0045                    0.0065                   305.39191080387394
0.0045                    0.0075                   300.19477291142243
0.0045                    0.0085                   297.12413773312574
0.0045                    0.0095                   295.3268116607927
0.0045                    0.0105                   293.5347015952373
0.0045                    0.0115                   293.3376313264503
0.0045                    0.0125                   293.2128534083979
0.0045                    0.0135                   293.13275218318006
0.0045                    0.0145                   293.1535222007466
0.0045                    0.0155                   293.1742922183131
0.0045                    0.0165                   293.17789424746337
0.0045                    0.0175                   293.1706127654987
0.0045                    0.0185                   293.1634972956821
0.0045                    0.0195                   293.4462763649335
0.0045                    0.0205                   293.75569135865476
0.0045                    0.0215                   294.8064378971743
0.0045                    0.0225                   297.29399724403464
0.0045                    0.0235                   299.781556590895
0.0045                    0.0245                   302.7677591498609
0.0045                    0.0255                   305.7550882174129
0.0045                    0.0265                   308.56574239597387
0.0045                    0.0275                   309.67911990245244
0.0045                    0.0285                   310.792497408931
0.0045                    0.0295                   311.90652102309014
0.0045                    0.0305                   313.1933603940089
0.0045                    0.0315                   314.50432345893904
0.0055                    -0.0315                  376.44463053633797
0.0055                    -0.0305                  374.16031045210485
0.0055                    -0.0295                  371.753080130899
0.0055                    -0.0285                  366.1313036443415
0.0055                    -0.0275                  360.74404848989394
0.0055                    -0.0265                  355.9002616054862
0.0055                    -0.0255                  351.81105476244244
0.0055                    -0.0245                  347.8328345556579
0.0055                    -0.0235                  345.2127221913633
0.0055                    -0.0225                  344.18048080869016
0.0055                    -0.0215                  343.00562381528147
0.0055                    -0.0205                  342.8769120365438
0.0055                    -0.0195                  343.01847395394725
0.0055                    -0.0185                  342.9295264575732
0.0055                    -0.0175                  344.0565802102757
0.0055                    -0.0165                  344.77200888781545
0.0055                    -0.0155                  345.28212293922184
0.0055                    -0.0145                  346.9624923537542
0.0055                    -0.0135                  347.8484663495539
0.0055                    -0.0125                  348.6778693159866
0.0055                    -0.0115                  349.7417615292274
0.0055                    -0.0105                  350.29365941087144
0.0055                    -0.0095                  350.6530237490657
0.0055                    -0.0085                  350.1873983250832
0.0055                    -0.0075                  349.766538705446
0.0055                    -0.0065                  348.62083785866025
0.0055                    -0.0055                  346.08856440291186
0.0055                    -0.0045                  344.0946058892811
0.0055                    -0.0035                  340.7485996400192
0.0055                    -0.0025                  336.3272273266159
0.0055                    -0.0015                  332.7245666801532
0.0055                    -5.0E-4                  328.3961096529813
0.0055                    5.0E-4                   324.32420433914285
0.0055                    0.0015                   320.7927542322191
0.0055                    0.0025                   317.9990701524447
0.0055                    0.0035                   315.42287600463703
0.0055                    0.0045                   312.8160812527922
0.0055                    0.0055                   309.9397981574979
0.0055                    0.0065                   304.9233644535335
0.0055                    0.0075                   299.95467983105175
0.0055                    0.0085                   296.8182734042641
0.0055                    0.0095                   295.014794481559
0.0055                    0.0105                   293.7062764769591
0.0055                    0.0115                   293.31289480863063
0.0055                    0.0125                   293.187155290464
0.0055                    0.0135                   293.1452719711055
0.0055                    0.0145                   293.15825152254854
0.0055                    0.0155                   293.1779098973294
0.0055                    0.0165                   293.18293313427176
0.0055                    0.0175                   293.1756689486087
0.0055                    0.0185                   293.23440658739884
0.0055                    0.0195                   293.44756113715016
0.0055                    0.0205                   293.7560249370256
0.0055                    0.0215                   294.91168951885163
0.0055                    0.0225                   297.28392237421156
0.0055                    0.0235                   300.103793632377
0.0055                    0.0245                   303.4534912254841
0.0055                    0.0255                   306.4892865084089
0.0055                    0.0265                   308.16344731291036
0.0055                    0.0275                   309.05046620055737
0.0055                    0.0285                   310.16384370703594
0.0055                    0.0295                   311.2969185865888
0.0055                    0.0305                   312.35507262272745
0.0055                    0.0315                   313.4273629601104
0.0065                    -0.0315                  374.4743726823002
0.0065                    -0.0305                  372.0264968385922
0.0065                    -0.0295                  369.3658321224978
0.0065                    -0.0285                  363.74405563594036
0.0065                    -0.0275                  358.21213832043577
0.0065                    -0.0265                  354.0720553973633
0.0065                    -0.0255                  349.9319724742909
0.0065                    -0.0245                  345.9452084601955
0.0065                    -0.0235                  345.0382025404848
0.0065                    -0.0225                  344.13119662077395
0.0065                    -0.0215                  343.4023409327504
0.0065                    -0.0205                  343.86621756778015
0.0065                    -0.0195                  344.33009420280985
0.0065                    -0.0185                  344.92275552548693
0.0065                    -0.0175                  346.32477154928597
0.0065                    -0.0165                  347.5822311349539
0.0065                    -0.0155                  348.8146707929841
0.0065                    -0.0145                  350.5528976703458
0.0065                    -0.0135                  351.9937443416139
0.0065                    -0.0125                  353.0058645865364
0.0065                    -0.0115                  354.1021780075466
0.0065                    -0.0105                  354.9465504851934
0.0065                    -0.0095                  354.6591985771099
0.0065                    -0.0085                  354.18264175454294
0.0065                    -0.0075                  353.7393360020176
0.0065                    -0.0065                  351.1136266528018
0.0065                    -0.0055                  348.3140933299111
0.0065                    -0.0045                  345.9573715803556
0.0065                    -0.0035                  340.8160024287283
0.0065                    -0.0025                  335.67463327710107
0.0065                    -0.0015                  331.6406171961674
0.0065                    -5.0E-4                  326.7430074274256
0.0065                    5.0E-4                   321.84782594025336
0.0065                    0.0015                   318.6473346621369
0.0065                    0.0025                   316.1595693007236
0.0065                    0.0035                   313.6546194753364
0.0065                    0.0045                   310.89788741712994
0.0065                    0.0055                   307.9819615390234
0.0065                    0.0065                   304.25343287894043
0.0065                    0.0075                   300.3727972091656
0.0065                    0.0085                   296.9723816244717
0.0065                    0.0095                   294.53029071467154
0.0065                    0.0105                   293.9320407758181
0.0065                    0.0115                   293.3337908369647