% Model:              SIMBench260525.mph
% Version:            COMSOL 6.2.0.339
% Date:               May 27 2026, 17:21
% Dimension:          2
% Nodes:              4096
% Expressions:        1
% Description:        温度
% Length unit:        m
% x                       y                        T (K)
5.0E-4                    -0.0315                  322.3901599096994
5.0E-4                    -0.0305                  321.12695691430815
5.0E-4                    -0.0295                  319.8653326542781
5.0E-4                    -0.0285                  318.4970074299604
5.0E-4                    -0.0275                  317.32997270624656
5.0E-4                    -0.0265                  316.2679902483584
5.0E-4                    -0.0255                  315.7367254567836
5.0E-4                    -0.0245                  315.10042093276667
5.0E-4                    -0.0235                  314.5976489906177
5.0E-4                    -0.0225                  314.3305890807768
5.0E-4                    -0.0215                  314.02673030976985
5.0E-4                    -0.0205                  313.7850224108006
5.0E-4                    -0.0195                  313.59461348417113
5.0E-4                    -0.0185                  313.39894957730553
5.0E-4                    -0.0175                  313.2017034079986
5.0E-4                    -0.0165                  313.07169198464106
5.0E-4                    -0.0155                  312.94258456752914
5.0E-4                    -0.0145                  312.72613846140945
5.0E-4                    -0.0135                  312.6482750956845
5.0E-4                    -0.0125                  312.5704117299595
5.0E-4                    -0.0115                  312.3827749192135
5.0E-4                    -0.0105                  312.30531050280865
5.0E-4                    -0.0095                  312.2228340382678
5.0E-4                    -0.0085                  312.10391673349744
5.0E-4                    -0.0075                  312.0183342145199
5.0E-4                    -0.0065                  311.9438437222403
5.0E-4                    -0.0055                  311.9231635683513
5.0E-4                    -0.0045                  311.9121715604849
5.0E-4                    -0.0035                  311.91892567575644
5.0E-4                    -0.0025                  311.9334052510005
5.0E-4                    -0.0015                  311.9419075093674
5.0E-4                    -5.0E-4                  311.9892698417291
5.0E-4                    5.0E-4                   311.99599604991164
5.0E-4                    0.0015                   311.99765653023786
5.0E-4                    0.0025                   312.05524024566137
5.0E-4                    0.0035                   311.97944081504806
5.0E-4                    0.0045                   311.9036413844347
5.0E-4                    0.0055                   311.8866547568047
5.0E-4                    0.0065                   311.59249114173133
5.0E-4                    0.0075                   311.30212353993323
5.0E-4                    0.0085                   311.0027803307719
5.0E-4                    0.0095                   310.23530994608893
5.0E-4                    0.0105                   309.5550583010005
5.0E-4                    0.0115                   308.21664067970465
5.0E-4                    0.0125                   306.05080702611815
5.0E-4                    0.0135                   304.2080342235334
5.0E-4                    0.0145                   301.6753133056276
5.0E-4                    0.0155                   298.6299574962862
5.0E-4                    0.0165                   295.35393534152263
5.0E-4                    0.0175                   294.7314087464591
5.0E-4                    0.0185                   294.44790104221465
5.0E-4                    0.0195                   293.74482621235666
5.0E-4                    0.0205                   293.7768867682801
5.0E-4                    0.0215                   293.8089473242035
5.0E-4                    0.0225                   293.4032790054986
5.0E-4                    0.0235                   293.2294155882363
5.0E-4                    0.0245                   293.15194816521756
5.0E-4                    0.0255                   293.16380964915834
5.0E-4                    0.0265                   293.184741657174
5.0E-4                    0.0275                   293.1677896920986
5.0E-4                    0.0285                   293.1508377270232
5.0E-4                    0.0295                   293.1515172004379
5.0E-4                    0.0305                   293.1180429979621
5.0E-4                    0.0315                   293.0845687954863
0.0015                    -0.0315                  321.6936790874206
0.0015                    -0.0305                  320.3257825808204
0.0015                    -0.0295                  318.9736764205573
0.0015                    -0.0285                  317.4803083275057
0.0015                    -0.0275                  316.18620032189443
0.0015                    -0.0265                  315.610041668737
0.0015                    -0.0255                  315.19138782909613
0.0015                    -0.0245                  314.57236472378554
0.0015                    -0.0235                  314.3602150951623
0.0015                    -0.0225                  314.160692902759
0.0015                    -0.0215                  313.86700296238683
0.0015                    -0.0205                  313.70270218821685
0.0015                    -0.0195                  313.5310566780323
0.0015                    -0.0185                  313.33480249604315
0.0015                    -0.0175                  313.13650613145046
0.0015                    -0.0165                  312.96462993653404
0.0015                    -0.0155                  312.7761216207542
0.0015                    -0.0145                  312.4923301032595
0.0015                    -0.0135                  312.32068572884725
0.0015                    -0.0125                  312.14636003639447
0.0015                    -0.0115                  311.88830655323227
0.0015                    -0.0105                  311.7576913072787
0.0015                    -0.0095                  311.63195525508354
0.0015                    -0.0085                  311.4843270235383
0.0015                    -0.0075                  311.39017593412404
0.0015                    -0.0065                  311.3456174550361
0.0015                    -0.0055                  311.30959049842915
0.0015                    -0.0045                  311.2985984905628
0.0015                    -0.0035                  311.3335141983638
0.0015                    -0.0025                  311.36420101907174
0.0015                    -0.0015                  311.3830308015318
0.0015                    -5.0E-4                  311.46363310489636
0.0015                    5.0E-4                   311.5178842639148
0.0015                    0.0015                   311.55093131298685
0.0015                    0.0025                   311.6574448421213
0.0015                    0.0035                   311.6743280605138
0.0015                    0.0045                   311.68479617207333
0.0015                    0.0055                   311.79788275562737
0.0015                    0.0065                   311.6463538812513
0.0015                    0.0075                   311.548614861477
0.0015                    0.0085                   311.57405984222123
0.0015                    0.0095                   310.958999354481
0.0015                    0.0105                   310.58862831959146
0.0015                    0.0115                   310.3358418327459
0.0015                    0.0125                   308.23577564435845
0.0015                    0.0135                   306.9871665359449
0.0015                    0.0145                   305.5779640485193
0.0015                    0.0155                   302.491238494964
0.0015                    0.0165                   298.9704228183534
0.0015                    0.0175                   296.47716603077976
0.0015                    0.0185                   295.92344739173194
0.0015                    0.0195                   294.8398420948171
0.0015                    0.0205                   294.46759467599554
0.0015                    0.0215                   294.1165541868664
0.0015                    0.0225                   293.6251638280006
0.0015                    0.0235                   293.2505897198808
0.0015                    0.0245                   293.1646113610476
0.0015                    0.0255                   293.169136844219
0.0015                    0.0265                   293.21134822805607
0.0015                    0.0275                   293.2274073850947
0.0015                    0.0285                   293.21741435781166
0.0015                    0.0295                   293.2427293999709
0.0015                    0.0305                   293.22944580533897
0.0015                    0.0315                   293.2300313108243
0.0025                    -0.0315                  320.99719826514183
0.0025                    -0.0305                  319.5891944137585
0.0025                    -0.0295                  318.13234506044626
0.0025                    -0.0285                  316.6265799134941
0.0025                    -0.0275                  315.57328516500877
0.0025                    -0.0265                  315.1176304481372
0.0025                    -0.0255                  314.66611437145326
0.0025                    -0.0245                  314.40279898785053
0.0025                    -0.0235                  314.2049038817886
0.0025                    -0.0225                  314.0070087757268
0.0025                    -0.0215                  313.8546579381223
0.0025                    -0.0205                  313.6924807682848
0.0025                    -0.0195                  313.5303035984473
0.0025                    -0.0185                  313.30254030464437
0.0025                    -0.0175                  313.10524156973605
0.0025                    -0.0165                  312.90437358769543
0.0025                    -0.0155                  312.5435073887903
0.0025                    -0.0145                  312.2605133185076
0.0025                    -0.0135                  311.9585909069904
0.0025                    -0.0125                  311.692542037371
0.0025                    -0.0115                  311.43481119278704
0.0025                    -0.0105                  311.2125716310445
0.0025                    -0.0095                  311.0644013425325
0.0025                    -0.0085                  310.9162310540204
0.0025                    -0.0075                  310.8229697168725
0.0025                    -0.0065                  310.7859512729666
0.0025                    -0.0055                  310.74893282906066
0.0025                    -0.0045                  310.75535301830234
0.0025                    -0.0035                  310.79040648015723
0.0025                    -0.0025                  310.82545994201206
0.0025                    -0.0015                  310.88898379316686
0.0025                    -5.0E-4                  310.9694450235359
0.0025                    5.0E-4                   311.049906253905
0.0025                    0.0015                   311.14521516629475
0.0025                    0.0025                   311.25171544752476
0.0025                    0.0035                   311.3561352230529
0.0025                    0.0045                   311.4646600220924
0.0025                    0.0055                   311.5777721573245
0.0025                    0.0065                   311.6874467886558
0.0025                    0.0075                   311.71317728596256
0.0025                    0.0085                   311.7389077832693
0.0025                    0.0095                   311.72600705781707
0.0025                    0.0105                   311.4733491505733
0.0025                    0.0115                   311.22069124332944
0.0025                    0.0125                   310.685174071202
0.0025                    0.0135                   309.5065425664288
0.0025                    0.0145                   308.32791106165564
0.0025                    0.0155                   306.06334340780904
0.0025                    0.0165                   302.5350016941685
0.0025                    0.0175                   299.00665998052796
0.0025                    0.0185                   297.5619292900702
0.0025                    0.0195                   296.4637756508527
0.0025                    0.0205                   295.00789864148186
0.0025                    0.0215                   294.35330395122776
0.0025                    0.0225                   293.84704865050264
0.0025                    0.0235                   293.40601560681523
0.0025                    0.0245                   293.18592072946655
0.0025                    0.0255                   293.17446403927966
0.0025                    0.0265                   293.2241899687615
0.0025                    0.0275                   293.28154361632994
0.0025                    0.0285                   293.295760345081
0.0025                    0.0295                   293.33876742775414
0.0025                    0.0305                   293.37007514385897
0.0025                    0.0315                   293.3769962542805
0.0035                    -0.0315                  320.3075885567132
0.0035                    -0.0305                  318.786441689483
0.0035                    -0.0295                  317.34979120950476
0.0035                    -0.0285                  316.06341670636044
0.0035                    -0.0275                  315.50166933095466
0.0035                    -0.0265                  314.9831749104096
0.0035                    -0.0255                  314.6143209681535
0.0035                    -0.0245                  314.5607475153506
0.0035                    -0.0235                  314.4030001903721
0.0035                    -0.0225                  314.2484970390706
0.0035                    -0.0215                  314.1914929437677
0.0035                    -0.0205                  314.04203802121685
0.0035                    -0.0195                  313.78610841388223
0.0035                    -0.0185                  313.4233034725004
0.0035                    -0.0175                  313.2260047375921
0.0035                    -0.0165                  312.7532828716811
0.0035                    -0.0155                  312.18237509036703
0.0035                    -0.0145                  311.8993810200843
0.0035                    -0.0135                  311.5217282772363
0.0035                    -0.0125                  311.16795161482037
0.0035                    -0.0115                  310.91022077023644
0.0035                    -0.0105                  310.76342139391875
0.0035                    -0.0095                  310.62038316868063
0.0035                    -0.0085                  310.4810538363785
0.0035                    -0.0075                  310.47211816448805
0.0035                    -0.0065                  310.4446593994978
0.0035                    -0.0055                  310.4231132831918
0.0035                    -0.0045                  310.4608728789451
0.0035                    -0.0035                  310.4964247345148
0.0035                    -0.0025                  310.53635781385714
0.0035                    -0.0015                  310.5851551471949
0.0035                    -5.0E-4                  310.6647431952833
0.0035                    5.0E-4                   310.7327142474529
0.0035                    0.0015                   310.79512308189084
0.0035                    0.0025                   310.90162336312085
0.0035                    0.0035                   310.9849602055286
0.0035                    0.0045                   311.06847849183833
0.0035                    0.0055                   311.18159062707036
0.0035                    0.0065                   311.2983271036842
0.0035                    0.0075                   311.37487821224727
0.0035                    0.0085                   311.40060870955404
0.0035                    0.0095                   311.5354797994323
0.0035                    0.0105                   311.4369054715565
0.0035                    0.0115                   311.2286888696167
0.0035                    0.0125                   311.30270043625774
0.0035                    0.0135                   310.4158893457129
0.0035                    0.0145                   309.5135586495314
0.0035                    0.0155                   309.25495670099133
0.0035                    0.0165                   305.86480287082105
0.0035                    0.0175                   302.97041972948693
0.0035                    0.0185                   300.84494223522927
0.0035                    0.0195                   299.7467885960118
0.0035                    0.0205                   296.6995741547493
0.0035                    0.0215                   295.215817090115
0.0035                    0.0225                   294.20496655022816
0.0035                    0.0235                   293.44142451312985
0.0035                    0.0245                   293.24806120736986
0.0035                    0.0255                   293.2050873187942
0.0035                    0.0265                   293.2359825027961
0.0035                    0.0275                   293.29838105098554
0.0035                    0.0285                   293.41719726376516
0.0035                    0.0295                   293.4823720509877
0.0035                    0.0305                   293.5110593203043
0.0035                    0.0315                   293.510283610467
0.0045                    -0.0315                  319.83490194656133
0.0045                    -0.0305                  318.216263598784
0.0045                    -0.0295                  316.6144882587043
0.0045                    -0.0285                  315.99161007066135
0.0045                    -0.0275                  315.42994594602067
0.0045                    -0.0265                  314.86828182138
0.0045                    -0.0255                  314.725671938672
0.0045                    -0.0245                  314.67209848586907
0.0045                    -0.0235                  314.60109649895554
0.0045                    -0.0225                  314.5325832595114
0.0045                    -0.0215                  314.4755791642085
0.0045                    -0.0205                  314.3771454861171
0.0045                    -0.0195                  314.0103042465059
0.0045                    -0.0185                  313.6434630068946
0.0045                    -0.0175                  313.235836312944
0.0045                    -0.0165                  312.6021921556668
0.0045                    -0.0155                  311.9685479983897
0.0045                    -0.0145                  311.48894697752297
0.0045                    -0.0135                  311.0848656474822
0.0045                    -0.0125                  310.6807843174414
0.0045                    -0.0115                  310.4509907272031
0.0045                    -0.0105                  310.3131764585636
0.0045                    -0.0095                  310.17536218992416
0.0045                    -0.0085                  310.12287334917795
0.0045                    -0.0075                  310.1139376772875
0.0045                    -0.0065                  310.1033675260291
0.0045                    -0.0055                  310.12750308892976
0.0045                    -0.0045                  310.1652626846831
0.0045                    -0.0035                  310.2024429888723
0.0045                    -0.0025                  310.2507203286569
0.0045                    -0.0015                  310.2995176619946
0.0045                    -5.0E-4                  310.35728012566375
0.0045                    5.0E-4                   310.41312583824805
0.0045                    0.0015                   310.4689715508324
0.0045                    0.0025                   310.542214213522
0.0045                    0.0035                   310.61378518800416
0.0045                    0.0045                   310.6853561624864
0.0045                    0.0055                   310.78728204244214
0.0045                    0.0065                   310.90481001734867
0.0045                    0.0075                   311.02233799225513
0.0045                    0.0085                   311.12727252721754
0.0045                    0.0095                   311.26459621459924
0.0045                    0.0105                   311.4004617925396
0.0045                    0.0115                   311.3897731757629
0.0045                    0.0125                   311.463784742404
0.0045                    0.0135                   311.325236124997
0.0045                    0.0145                   310.9843747734077
0.0045                    0.0155                   310.72577282486765
0.0045                    0.0165                   309.37234657320965
0.0045                    0.0175                   306.9503208993242
0.0045                    0.0185                   304.5282952254388
0.0045                    0.0195                   302.10790317186303
0.0045                    0.0205                   298.8223225765621
0.0045                    0.0215                   296.0911786984482
0.0045                    0.0225                   294.9048132518975
0.0045                    0.0235                   293.6841490278301
0.0045                    0.0245                   293.28826413524416
0.0045                    0.0255                   293.2427548055729
0.0045                    0.0265                   293.2523557614047
0.0045                    0.0275                   293.32114705846755
0.0045                    0.0285                   293.4416077314801
0.0045                    0.0295                   293.57649972139075
0.0045                    0.0305                   293.6332777772126
0.0045                    0.0315                   293.61062402174423
0.0055                    -0.0315                  319.36221533640946
0.0055                    -0.0305                  317.97968212560704
0.0055                    -0.0295                  316.6341593637234
0.0055                    -0.0285                  315.9183246419325
0.0055                    -0.0275                  315.3546455156454
0.0055                    -0.0265                  315.03776015637334
0.0055                    -0.0255                  314.99818140369035
0.0055                    -0.0245                  314.93436660605454
0.0055                    -0.0235                  314.9217553117144
0.0055                    -0.0225                  314.91335294033036
0.0055                    -0.0215                  314.8570176345606
0.0055                    -0.0205                  314.3016278852429
0.0055                    -0.0195                  313.78231658057973
0.0055                    -0.0185                  313.4115278772554
0.0055                    -0.0175                  312.5768271136758
0.0055                    -0.0165                  311.8967109242498
0.0055                    -0.0155                  311.27816197979814
0.0055                    -0.0145                  310.93866012134004
0.0055                    -0.0135                  310.5364440544091
0.0055                    -0.0125                  310.2012993082306
0.0055                    -0.0115                  310.1661918706319
0.0055                    -0.0105                  310.02699284916673
0.0055                    -0.0095                  309.95442395550447
0.0055                    -0.0085                  310.00741243886637
0.0055                    -0.0075                  309.9969031764681
0.0055                    -0.0065                  310.03009375877923
0.0055                    -0.0055                  310.09577168109513
0.0055                    -0.0045                  310.13236303948594
0.0055                    -0.0035                  310.18457621586657
0.0055                    -0.0025                  310.23880638266587
0.0055                    -0.0015                  310.2869288600565
0.0055                    -5.0E-4                  310.32911399984175
0.0055                    5.0E-4                   310.3810301065284
0.0055                    0.0015                   310.43658749257634
0.0055                    0.0025                   310.47152676485416
0.0055                    0.0035                   310.5400227661772
0.0055                    0.0045                   310.6104073933327
0.0055                    0.0055                   310.65045139485125
0.0055                    0.0065                   310.7678672339432
0.0055                    0.0075                   310.8733633619737
0.0055                    0.0085                   310.9473278385504
0.0055                    0.0095                   311.08464275749685
0.0055                    0.0105                   311.2055903475237
0.0055                    0.0115                   311.28888469687126
0.0055                    0.0125                   311.36247399232036
0.0055                    0.0135                   311.45598630714875
0.0055                    0.0145                   311.34547285056397
0.0055                    0.0155                   311.07830963195
0.0055                    0.0165                   310.98726386426034
0.0055                    0.0175                   309.0702425189128
0.0055                    0.0185                   306.7009660624037
0.0055                    0.0195                   303.31729465465304
0.0055                    0.0205                   299.92879306482297
0.0055                    0.0215                   296.7960275516834
0.0055                    0.0225                   294.71354180276364
0.0055                    0.0235                   293.7561783588608
0.0055                    0.0245                   293.2672709351875
0.0055                    0.0255                   293.22217761944023
0.0055                    0.0265                   293.27299736754264
0.0055                    0.0275                   293.34391306594955
0.0055                    0.0285                   293.4630338852983
0.0055                    0.0295                   293.58980341093684
0.0055                    0.0305                   293.6658606281238
0.0055                    0.0315                   293.70875777019546
0.0065                    -0.0315                  319.36655264815636
0.0065                    -0.0305                  317.98504564159356
0.0065                    -0.0295                  316.6944803504222
0.0065                    -0.0285                  315.9786456286314
0.0065                    -0.0275                  315.32788151545236
0.0065                    -0.0265                  315.3004929167431
0.0065                    -0.0255                  315.2731043180338
0.0065                    -0.0245                  315.2201323462739
0.0065                    -0.0235                  315.2611799933299
0.0065                    -0.0225                  315.30222764038587
0.0065                    -0.0215                  315.0319156704986
0.0065                    -0.0205                  314.25214041001294
0.0065                    -0.0195                  313.47959544430836
0.0065                    -0.0185                  312.84111172334315
0.0065                    -0.0175                  311.9437649218014
0.0065                    -0.0165                  311.10480209081345
0.0065                    -0.0155                  310.671996360901
0.0065                    -0.0145                  310.33249450244284
0.0065                    -0.0135                  309.9679027613604
0.0065                    -0.0125                  309.87712570081004
0.0065                    -0.0115                  309.8601449982734
0.0065                    -0.0105                  309.7755759313746
0.0065                    -0.0095                  309.8403275999917
0.0065                    -0.0085                  309.9210274616719
0.0065                    -0.0075                  309.9426342417568
0.0065                    -0.0065                  310.0327993484682
0.0065                    -0.0055                  310.1229644551796
0.0065                    -0.0045                  310.1722938621984
0.0065                    -0.0035                  310.23616150605517
0.0065                    -0.0025                  310.29987075135045
0.0065                    -0.0015                  310.34529584723566
0.0065                    -5.0E-4                  310.38516220560314
0.0065                    5.0E-4                   310.4276246881034
0.0065                    0.0015                   310.47190198735274
0.0065                    0.0025                   310.50380450945465
0.0065                    0.0035                   310.54846264864227
0.0065                    0.0045                   310.5955957971214
0.0065                    0.0055                   310.62857348929015
0.0065                    0.0065                   310.70222897912794
0.0065                    0.0075                   310.7690836243699
0.0065                    0.0085                   310.82255689119364
0.0065                    0.0095                   310.9300442514149
0.0065                    0.0105                   311.02234885678286